# vtk DataFile Version 2.0
cook_membrance_guass3
ASCII
DATASET POLYDATA
POINTS 861 float
0.000000 0.000000 0.000000
48.000000 44.000000 0.000000
48.000000 60.000000 0.000000
0.000000 44.000000 0.000000
1.720270 1.576915 0.000000
3.406810 3.122909 0.000000
5.060280 4.638590 0.000000
6.681330 6.124552 0.000000
8.270594 7.581378 0.000000
9.828696 9.009638 0.000000
11.356247 10.409893 0.000000
12.853846 11.782692 0.000000
14.322080 13.128573 0.000000
15.761525 14.448065 0.000000
17.172746 15.741684 0.000000
18.556296 17.009938 0.000000
19.912718 18.253325 0.000000
21.242543 19.472331 0.000000
22.546293 20.667435 0.000000
23.824479 21.839106 0.000000
25.077603 22.987803 0.000000
26.306156 24.113976 0.000000
27.510619 25.218068 0.000000
28.691466 26.300510 0.000000
29.849159 27.361729 0.000000
30.984152 28.402139 0.000000
32.096890 29.422149 0.000000
33.187809 30.422159 0.000000
34.257338 31.402560 0.000000
35.305896 32.363738 0.000000
36.333894 33.306070 0.000000
37.341736 34.229924 0.000000
38.329815 35.135664 0.000000
39.298521 36.023644 0.000000
40.248232 36.894213 0.000000
41.179321 37.747711 0.000000
42.092154 38.584475 0.000000
42.987088 39.404831 0.000000
43.864475 40.209102 0.000000
44.724657 40.997603 0.000000
45.567974 41.770643 0.000000
46.394755 42.528525 0.000000
47.205324 43.271547 0.000000
48.000000 44.800000 0.000000
48.000000 45.600000 0.000000
48.000000 46.400000 0.000000
48.000000 47.200000 0.000000
48.000000 48.000000 0.000000
48.000000 48.800000 0.000000
48.000000 49.600000 0.000000
48.000000 50.400000 0.000000
48.000000 51.200000 0.000000
48.000000 52.000000 0.000000
48.000000 52.800000 0.000000
48.000000 53.600000 0.000000
48.000000 54.400000 0.000000
48.000000 55.200000 0.000000
48.000000 56.000000 0.000000
48.000000 56.800000 0.000000
48.000000 57.600000 0.000000
48.000000 58.400000 0.000000
48.000000 59.200000 0.000000
47.205324 59.735108 0.000000
46.394755 59.464918 0.000000
45.567974 59.189325 0.000000
44.724657 58.908219 0.000000
43.864475 58.621492 0.000000
42.987088 58.329029 0.000000
42.092154 58.030718 0.000000
41.179321 57.726440 0.000000
40.248232 57.416077 0.000000
39.298521 57.099507 0.000000
38.329815 56.776605 0.000000
37.341736 56.447245 0.000000
36.333894 56.111298 0.000000
35.305896 55.768632 0.000000
34.257338 55.419113 0.000000
33.187809 55.062603 0.000000
32.096890 54.698963 0.000000
30.984152 54.328051 0.000000
29.849159 53.949720 0.000000
28.691466 53.563822 0.000000
27.510619 53.170206 0.000000
26.306156 52.768719 0.000000
25.077603 52.359201 0.000000
23.824479 51.941493 0.000000
22.546293 51.515431 0.000000
21.242543 51.080848 0.000000
19.912718 50.637573 0.000000
18.556296 50.185432 0.000000
17.172746 49.724249 0.000000
15.761525 49.253842 0.000000
14.322080 48.774027 0.000000
12.853846 48.284615 0.000000
11.356247 47.785416 0.000000
9.828696 47.276232 0.000000
8.270594 46.756865 0.000000
6.681330 46.227110 0.000000
5.060280 45.686760 0.000000
3.406810 45.135603 0.000000
1.720270 44.573423 0.000000
0.000000 41.800000 0.000000
0.000000 39.600000 0.000000
0.000000 37.400000 0.000000
0.000000 35.200000 0.000000
0.000000 33.000000 0.000000
0.000000 30.800000 0.000000
0.000000 28.600000 0.000000
0.000000 26.400000 0.000000
0.000000 24.200000 0.000000
0.000000 22.000000 0.000000
0.000000 19.800000 0.000000
0.000000 17.600000 0.000000
0.000000 15.400000 0.000000
0.000000 13.200000 0.000000
0.000000 11.000000 0.000000
0.000000 8.800000 0.000000
0.000000 6.600000 0.000000
0.000000 4.400000 0.000000
0.000000 2.200000 0.000000
1.720270 3.726740 0.000000
1.720270 5.876565 0.000000
1.720270 8.026391 0.000000
1.720270 10.176216 0.000000
1.720270 12.326042 0.000000
1.720270 14.475867 0.000000
1.720270 16.625693 0.000000
1.720270 18.775518 0.000000
1.720270 20.925344 0.000000
1.720270 23.075169 0.000000
1.720270 25.224994 0.000000
1.720270 27.374820 0.000000
1.720270 29.524645 0.000000
1.720270 31.674471 0.000000
1.720270 33.824296 0.000000
1.720270 35.974122 0.000000
1.720270 38.123947 0.000000
1.720270 40.273773 0.000000
1.720270 42.423598 0.000000
3.406810 5.223544 0.000000
3.406810 7.324179 0.000000
3.406810 9.424813 0.000000
3.406810 11.525448 0.000000
3.406810 13.626083 0.000000
3.406810 15.726718 0.000000
3.406810 17.827352 0.000000
3.406810 19.927987 0.000000
3.406810 22.028622 0.000000
3.406810 24.129256 0.000000
3.406810 26.229891 0.000000
3.406810 28.330526 0.000000
3.406810 30.431160 0.000000
3.406810 32.531795 0.000000
3.406810 34.632430 0.000000
3.406810 36.733065 0.000000
3.406810 38.833699 0.000000
3.406810 40.934334 0.000000
3.406810 43.034969 0.000000
5.060280 6.690999 0.000000
5.060280 8.743407 0.000000
5.060280 10.795816 0.000000
5.060280 12.848224 0.000000
5.060280 14.900633 0.000000
5.060280 16.953041 0.000000
5.060280 19.005450 0.000000
5.060280 21.057858 0.000000
5.060280 23.110267 0.000000
5.060280 25.162675 0.000000
5.060280 27.215084 0.000000
5.060280 29.267492 0.000000
5.060280 31.319901 0.000000
5.060280 33.372309 0.000000
5.060280 35.424718 0.000000
5.060280 37.477126 0.000000
5.060280 39.529535 0.000000
5.060280 41.581943 0.000000
5.060280 43.634352 0.000000
6.681330 8.129680 0.000000
6.681330 10.134808 0.000000
6.681330 12.139936 0.000000
6.681330 14.145064 0.000000
6.681330 16.150192 0.000000
6.681330 18.155320 0.000000
6.681330 20.160447 0.000000
6.681330 22.165575 0.000000
6.681330 24.170703 0.000000
6.681330 26.175831 0.000000
6.681330 28.180959 0.000000
6.681330 30.186087 0.000000
6.681330 32.191215 0.000000
6.681330 34.196343 0.000000
6.681330 36.201471 0.000000
6.681330 38.206598 0.000000
6.681330 40.211726 0.000000
6.681330 42.216854 0.000000
6.681330 44.221982 0.000000
8.270594 9.540152 0.000000
8.270594 11.498926 0.000000
8.270594 13.457701 0.000000
8.270594 15.416475 0.000000
8.270594 17.375249 0.000000
8.270594 19.334024 0.000000
8.270594 21.292798 0.000000
8.270594 23.251572 0.000000
8.270594 25.210347 0.000000
8.270594 27.169121 0.000000
8.270594 29.127895 0.000000
8.270594 31.086670 0.000000
8.270594 33.045444 0.000000
8.270594 35.004219 0.000000
8.270594 36.962993 0.000000
8.270594 38.921767 0.000000
8.270594 40.880542 0.000000
8.270594 42.839316 0.000000
8.270594 44.798090 0.000000
9.828696 10.922967 0.000000
9.828696 12.836297 0.000000
9.828696 14.749627 0.000000
9.828696 16.662957 0.000000
9.828696 18.576286 0.000000
9.828696 20.489616 0.000000
9.828696 22.402946 0.000000
9.828696 24.316275 0.000000
9.828696 26.229605 0.000000
9.828696 28.142935 0.000000
9.828696 30.056265 0.000000
9.828696 31.969594 0.000000
9.828696 33.882924 0.000000
9.828696 35.796254 0.000000
9.828696 37.709583 0.000000
9.828696 39.622913 0.000000
9.828696 41.536243 0.000000
9.828696 43.449573 0.000000
9.828696 45.362902 0.000000
11.356247 12.278669 0.000000
11.356247 14.147445 0.000000
11.356247 16.016221 0.000000
11.356247 17.884997 0.000000
11.356247 19.753774 0.000000
11.356247 21.622550 0.000000
11.356247 23.491326 0.000000
11.356247 25.360102 0.000000
11.356247 27.228878 0.000000
11.356247 29.097654 0.000000
11.356247 30.966430 0.000000
11.356247 32.835206 0.000000
11.356247 34.703983 0.000000
11.356247 36.572759 0.000000
11.356247 38.441535 0.000000
11.356247 40.310311 0.000000
11.356247 42.179087 0.000000
11.356247 44.047863 0.000000
11.356247 45.916639 0.000000
12.853846 13.607788 0.000000
12.853846 15.432884 0.000000
12.853846 17.257980 0.000000
12.853846 19.083077 0.000000
12.853846 20.908173 0.000000
12.853846 22.733269 0.000000
12.853846 24.558365 0.000000
12.853846 26.383461 0.000000
12.853846 28.208557 0.000000
12.853846 30.033654 0.000000
12.853846 31.858750 0.000000
12.853846 33.683846 0.000000
12.853846 35.508942 0.000000
12.853846 37.334038 0.000000
12.853846 39.159134 0.000000
12.853846 40.984231 0.000000
12.853846 42.809327 0.000000
12.853846 44.634423 0.000000
12.853846 46.459519 0.000000
14.322080 14.910846 0.000000
14.322080 16.693119 0.000000
14.322080 18.475391 0.000000
14.322080 20.257664 0.000000
14.322080 22.039937 0.000000
14.322080 23.822209 0.000000
14.322080 25.604482 0.000000
14.322080 27.386755 0.000000
14.322080 29.169027 0.000000
14.322080 30.951300 0.000000
14.322080 32.733573 0.000000
14.322080 34.515845 0.000000
14.322080 36.298118 0.000000
14.322080 38.080391 0.000000
14.322080 39.862663 0.000000
14.322080 41.644936 0.000000
14.322080 43.427209 0.000000
14.322080 45.209481 0.000000
14.322080 46.991754 0.000000
15.761525 16.188354 0.000000
15.761525 17.928643 0.000000
15.761525 19.668931 0.000000
15.761525 21.409220 0.000000
15.761525 23.149509 0.000000
15.761525 24.889798 0.000000
15.761525 26.630087 0.000000
15.761525 28.370376 0.000000
15.761525 30.110665 0.000000
15.761525 31.850953 0.000000
15.761525 33.591242 0.000000
15.761525 35.331531 0.000000
15.761525 37.071820 0.000000
15.761525 38.812109 0.000000
15.761525 40.552398 0.000000
15.761525 42.292686 0.000000
15.761525 44.032975 0.000000
15.761525 45.773264 0.000000
15.761525 47.513553 0.000000
17.172746 17.440812 0.000000
17.172746 19.139941 0.000000
17.172746 20.839069 0.000000
17.172746 22.538197 0.000000
17.172746 24.237325 0.000000
17.172746 25.936454 0.000000
17.172746 27.635582 0.000000
17.172746 29.334710 0.000000
17.172746 31.033838 0.000000
17.172746 32.732966 0.000000
17.172746 34.432095 0.000000
17.172746 36.131223 0.000000
17.172746 37.830351 0.000000
17.172746 39.529479 0.000000
17.172746 41.228608 0.000000
17.172746 42.927736 0.000000
17.172746 44.626864 0.000000
17.172746 46.325992 0.000000
17.172746 48.025121 0.000000
18.556296 18.668713 0.000000
18.556296 20.327488 0.000000
18.556296 21.986262 0.000000
18.556296 23.645037 0.000000
18.556296 25.303812 0.000000
18.556296 26.962586 0.000000
18.556296 28.621361 0.000000
18.556296 30.280136 0.000000
18.556296 31.938910 0.000000
18.556296 33.597685 0.000000
18.556296 35.256460 0.000000
18.556296 36.915235 0.000000
18.556296 38.574009 0.000000
18.556296 40.232784 0.000000
18.556296 41.891559 0.000000
18.556296 43.550333 0.000000
18.556296 45.209108 0.000000
18.556296 46.867883 0.000000
[...]
POINT_DATA 861
VECTORS U float
0.000001 -0.000000 0.000000
-1.819136 6.655302 0.000000
-5.582924 6.691634 0.000000
-0.000063 0.000049 0.000000
0.000689 0.110065 0.000000
0.002876 0.216470 0.000000
0.007577 0.312106 0.000000
0.012840 0.400156 0.000000
0.019514 0.484550 0.000000
0.032203 0.565031 0.000000
0.051987 0.644449 0.000000
0.078191 0.725305 0.000000
0.108999 0.810358 0.000000
0.143085 0.901425 0.000000
0.178933 1.000425 0.000000
0.213963 1.108022 0.000000
0.246524 1.225883 0.000000
0.275407 1.353883 0.000000
0.298573 1.492347 0.000000
0.315475 1.641154 0.000000
0.324465 1.799422 0.000000
0.325226 1.966465 0.000000
0.317103 2.142352 0.000000
0.300022 2.325922 0.000000
0.273382 2.516666 0.000000
0.237446 2.713738 0.000000
0.192053 2.916404 0.000000
0.137426 3.124113 0.000000
0.073612 3.335985 0.000000
0.001030 3.551437 0.000000
-0.080041 3.770190 0.000000
-0.169601 3.991750 0.000000
-0.267214 4.215293 0.000000
-0.372463 4.440448 0.000000
-0.485420 4.666909 0.000000
-0.605677 4.894210 0.000000
-0.733214 5.121567 0.000000
-0.867601 5.348443 0.000000
-1.008561 5.573813 0.000000
-1.156466 5.797845 0.000000
-1.310819 6.019155 0.000000
-1.471133 6.236880 0.000000
-1.640268 6.449119 0.000000
-1.982068 6.645254 0.000000
-2.136010 6.643074 0.000000
-2.285795 6.644809 0.000000
-2.436035 6.649198 0.000000
-2.587928 6.656290 0.000000
-2.742113 6.665702 0.000000
-2.899076 6.676490 0.000000
-3.059668 6.687879 0.000000
-3.225007 6.699551 0.000000
-3.394686 6.711324 0.000000
-3.569512 6.723051 0.000000
-3.751050 6.733970 0.000000
-3.939347 6.743308 0.000000
-4.133811 6.750852 0.000000
-4.337300 6.755703 0.000000
-4.550184 6.758527 0.000000
-4.775934 6.757949 0.000000
-5.017160 6.751993 0.000000
-5.280174 6.734550 0.000000
-5.403014 6.398614 0.000000
-5.243791 6.140930 0.000000
-5.094362 5.900657 0.000000
-4.951335 5.669891 0.000000
-4.813182 5.444361 0.000000
-4.678461 5.223436 0.000000
-4.544847 5.005556 0.000000
-4.411765 4.791048 0.000000
-4.278957 4.579266 0.000000
-4.146031 4.369255 0.000000
-4.012808 4.161562 0.000000
-3.878736 3.956606 0.000000
-3.743468 3.753825 0.000000
-3.607449 3.553715 0.000000
-3.470573 3.357544 0.000000
-3.332502 3.164337 0.000000
-3.193924 2.974475 0.000000
-3.054858 2.789194 0.000000
-2.914964 2.608151 0.000000
-2.774948 2.431453 0.000000
-2.634958 2.259841 0.000000
-2.494814 2.093729 0.000000
-2.354785 1.932743 0.000000
-2.215195 1.777348 0.000000
-2.076031 1.628466 0.000000
-1.937229 1.485577 0.000000
-1.799027 1.348750 0.000000
-1.661242 1.218254 0.000000
-1.523993 1.094844 0.000000
-1.386852 0.977643 0.000000
-1.250050 0.866848 0.000000
-1.112177 0.766553 0.000000
-0.973267 0.669567 0.000000
-0.833044 0.579617 0.000000
-0.685121 0.504907 0.000000
-0.528881 0.431186 0.000000
-0.351170 0.360777 0.000000
-0.160069 0.253294 0.000000
-0.032289 0.119488 0.000000
0.000005 0.000005 0.000000
0.000016 0.000001 0.000000
0.000012 0.000004 0.000000
0.000008 0.000005 0.000000
0.000008 0.000001 0.000000
0.000007 -0.000002 0.000000
0.000002 -0.000003 0.000000
-0.000001 -0.000001 0.000000
0.000001 0.000001 0.000000
0.000001 -0.000000 0.000000
0.000001 -0.000000 0.000000
0.000001 0.000002 0.000000
0.000001 0.000003 0.000000
0.000001 0.000000 0.000000
0.000002 -0.000000 0.000000
0.000002 0.000001 0.000000
0.000001 0.000001 0.000000
-0.000000 -0.000000 0.000000
0.000000 -0.000000 0.000000
0.000757 0.108438 0.000000
0.001004 0.106181 0.000000
0.001392 0.103025 0.000000
0.002087 0.098735 0.000000
0.003002 0.092560 0.000000
0.003626 0.084161 0.000000
0.004285 0.073974 0.000000
0.005364 0.062171 0.000000
0.006132 0.048594 0.000000
0.005710 0.034184 0.000000
0.005157 0.020425 0.000000
0.005408 0.007195 0.000000
0.005341 -0.005737 0.000000
0.003937 -0.016975 0.000000
0.001032 -0.022911 0.000000
-0.004268 -0.018172 0.000000
-0.010628 0.000242 0.000000
-0.014669 0.026068 0.000000
-0.016623 0.060818 0.000000
0.003886 0.212274 0.000000
0.005209 0.206792 0.000000
0.006870 0.199915 0.000000
0.009862 0.190717 0.000000
0.013393 0.177470 0.000000
0.016397 0.159526 0.000000
0.018536 0.138415 0.000000
0.020426 0.116724 0.000000
0.021892 0.093827 0.000000
0.021822 0.068100 0.000000
0.020706 0.041961 0.000000
0.019262 0.019428 0.000000
0.017160 -0.000109 0.000000
0.010098 -0.015283 0.000000
-0.004512 -0.018045 0.000000
-0.023771 -0.002495 0.000000
-0.032443 0.021952 0.000000
-0.045969 0.054652 0.000000
-0.073715 0.120676 0.000000
0.009675 0.306858 0.000000
0.012451 0.300378 0.000000
0.017725 0.290539 0.000000
0.025035 0.275790 0.000000
0.032336 0.255892 0.000000
0.037652 0.231156 0.000000
0.040059 0.203230 0.000000
0.042792 0.173865 0.000000
0.045959 0.142758 0.000000
0.045651 0.110167 0.000000
0.040562 0.079672 0.000000
0.036245 0.053738 0.000000
0.028648 0.032383 0.000000
0.008763 0.020868 0.000000
-0.020915 0.021087 0.000000
-0.044050 0.031297 0.000000
-0.061573 0.057200 0.000000
-0.103407 0.114247 0.000000
-0.182605 0.207266 0.000000
0.016923 0.395452 0.000000
0.025091 0.386593 0.000000
0.036184 0.372239 0.000000
0.047636 0.352407 0.000000
0.057562 0.327422 0.000000
0.063878 0.297897 0.000000
0.068183 0.264184 0.000000
0.072187 0.228397 0.000000
0.073713 0.193435 0.000000
0.069486 0.159479 0.000000
0.060965 0.127004 0.000000
0.051743 0.100678 0.000000
0.031131 0.083250 0.000000
-0.000238 0.073487 0.000000
-0.037322 0.072793 0.000000
-0.066959 0.086172 0.000000
-0.118448 0.125800 0.000000
-0.187640 0.196516 0.000000
-0.323640 0.301039 0.000000
0.030425 0.478400 0.000000
0.045309 0.466843 0.000000
0.061301 0.449257 0.000000
0.076106 0.425671 0.000000
0.087313 0.396817 0.000000
0.095222 0.363279 0.000000
0.100747 0.326952 0.000000
0.102981 0.289886 0.000000
0.100489 0.253730 0.000000
0.092132 0.219451 0.000000
0.078596 0.188908 0.000000
0.057876 0.166181 0.000000
0.026602 0.151713 0.000000
-0.014959 0.144065 0.000000
-0.060230 0.148673 0.000000
-0.110640 0.172729 0.000000
-0.190975 0.218355 0.000000
-0.299189 0.297943 0.000000
-0.471473 0.398454 0.000000
0.050966 0.557988 0.000000
0.071801 0.544156 0.000000
0.091663 0.523861 0.000000
0.108190 0.497933 0.000000
0.120784 0.466646 0.000000
0.128956 0.431493 0.000000
0.133153 0.394735 0.000000
0.131981 0.357868 0.000000
0.124273 0.322878 0.000000
0.109808 0.291014 0.000000
0.088266 0.264414 0.000000
0.055290 0.244554 0.000000
0.014724 0.233790 0.000000
-0.037752 0.230236 0.000000
-0.096656 0.241110 0.000000
-0.174434 0.274994 0.000000
-0.281234 0.328439 0.000000
-0.421549 0.403406 0.000000
-0.608554 0.487074 0.000000
0.077910 0.636398 0.000000
0.103188 0.621282 0.000000
0.125172 0.599543 0.000000
0.142883 0.572123 0.000000
0.155342 0.540349 0.000000
0.162149 0.505437 0.000000
0.162968 0.469877 0.000000
0.156383 0.435290 0.000000
0.142891 0.402485 0.000000
0.120015 0.373881 0.000000
0.088709 0.351599 0.000000
0.045190 0.334741 0.000000
-0.006333 0.327238 0.000000
-0.071985 0.330960 0.000000
-0.151255 0.349994 0.000000
-0.252443 0.386779 0.000000
-0.382270 0.439459 0.000000
-0.543535 0.509863 0.000000
-0.744608 0.587832 0.000000
0.109243 0.717042 0.000000
0.137397 0.701304 0.000000
0.160524 0.678908 0.000000
0.177777 0.651502 0.000000
0.188574 0.620444 0.000000
0.191912 0.587613 0.000000
0.187581 0.554310 0.000000
0.175302 0.522366 0.000000
0.153464 0.493571 0.000000
0.121884 0.468681 0.000000
0.079987 0.449878 0.000000
0.026379 0.437950 0.000000
-0.039937 0.436037 0.000000
-0.120111 0.445223 0.000000
-0.219032 0.467930 0.000000
-0.339881 0.505573 0.000000
-0.490796 0.556634 0.000000
-0.667964 0.620351 0.000000
-0.877758 0.690122 0.000000
0.143663 0.801855 0.000000
0.173012 0.785964 0.000000
0.195519 0.764044 0.000000
0.210869 0.737738 0.000000
0.217736 0.708634 0.000000
0.216642 0.678289 0.000000
0.205994 0.648010 0.000000
0.186016 0.619980 0.000000
0.155642 0.594799 0.000000
0.114487 0.574341 0.000000
0.061203 0.560162 0.000000
-0.004403 0.553149 0.000000
-0.084374 0.555016 0.000000
-0.180697 0.568071 0.000000
-0.297352 0.593425 0.000000
-0.436290 0.631270 0.000000
-0.601558 0.677749 0.000000
-0.791451 0.734164 0.000000
-1.009668 0.797174 0.000000
0.179316 0.893278 0.000000
0.207871 0.877956 0.000000
0.228249 0.857312 0.000000
0.239722 0.832975 0.000000
0.241838 0.806229 0.000000
0.234438 0.779139 0.000000
0.216354 0.752631 0.000000
0.188218 0.728251 0.000000
0.148233 0.707492 0.000000
0.096604 0.691157 0.000000
0.032291 0.680798 0.000000
-0.046188 0.677968 0.000000
-0.140225 0.684126 0.000000
-0.252259 0.699646 0.000000
-0.384210 0.724621 0.000000
-0.537521 0.759853 0.000000
-0.715181 0.803603 0.000000
-0.915855 0.855837 0.000000
-1.141137 0.913589 0.000000
0.214174 0.992535 0.000000
0.240250 0.978394 0.000000
0.256762 0.959489 0.000000
0.263097 0.937464 0.000000
0.259006 0.913950 0.000000
0.244106 0.890212 0.000000
0.218307 0.867435 0.000000
0.180578 0.847075 0.000000
0.131258 0.830082 0.000000
0.068539 0.817841 0.000000
-0.007589 0.811674 0.000000
-0.099045 0.812200 0.000000
-0.206268 0.820432 0.000000
-0.331744 0.836937 0.000000
-0.477102 0.861275 0.000000
-0.643318 0.894218 0.000000
-0.831667 0.934033 0.000000
-1.041159 0.981514 0.000000
-1.272523 1.034803 0.000000
0.246451 1.101102 0.000000
0.268522 1.088253 0.000000
0.279550 1.071538 0.000000
0.279429 1.052273 0.000000
0.268157 1.031799 0.000000
0.245358 1.011414 0.000000
0.210540 0.992421 0.000000
0.163524 0.975782 0.000000
0.103548 0.962941 0.000000
0.030080 0.954297 0.000000
-0.057677 0.950932 0.000000
-0.160966 0.953571 0.000000
-0.281241 0.963219 0.000000
-0.418871 0.980209 0.000000
-0.576133 1.003948 0.000000
-0.752403 1.034402 0.000000
-0.950019 1.070616 0.000000
-1.167042 1.113421 0.000000
-1.404899 1.162512 0.000000
0.274796 1.219685 0.000000
0.290900 1.208597 0.000000
0.295450 1.193975 0.000000
0.288102 1.177316 0.000000
0.268786 1.159924 0.000000
0.237164 1.142975 0.000000
0.193222 1.127378 0.000000
0.136212 1.114169 0.000000
0.066040 1.104239 0.000000
-0.018211 1.098623 0.000000
-0.117317 1.098053 0.000000
-0.232104 1.102793 0.000000
-0.363477 1.112872 0.000000
-0.512256 1.129089 0.000000
-0.679549 1.151074 0.000000
-0.865182 1.179537 0.000000
-1.070587 1.213300 0.000000
-1.294552 1.252768 0.000000
-1.537849 1.297602 0.000000
0.297216 1.348677 0.000000
0.306752 1.338983 0.000000
0.303575 1.326535 0.000000
0.288190 1.312522 0.000000
0.260135 1.298019 0.000000
0.219648 1.284035 0.000000
0.166036 1.271564 0.000000
0.099328 1.261384 0.000000
0.018668 1.254362 0.000000
-0.076144 1.251066 0.000000
-0.185803 1.252094 0.000000
-0.311001 1.257852 0.000000
-0.452678 1.268469 0.000000
-0.611139 1.284186 0.000000
-0.787409 1.304669 0.000000
-0.981209 1.330473 0.000000
-1.193247 1.361100 0.000000
-1.423142 1.397026 0.000000
-1.671288 1.438229 0.000000
0.313343 1.487770 0.000000
0.314672 1.479634 0.000000
0.303436 1.469169 0.000000
0.279216 1.457489 0.000000
0.242319 1.445551 0.000000
0.192322 1.434366 0.000000
0.129237 1.424632 0.000000
0.052577 1.417064 0.000000
-0.037813 1.412208 0.000000
-0.142664 1.410582 0.000000
-0.262253 1.412797 0.000000
-0.397166 1.419250 0.000000
-0.548059 1.429888 0.000000
-0.715079 1.444918 0.000000
-0.899025 1.463876 0.000000
-1.099765 1.487207 0.000000
-1.317871 1.514862 0.000000
-1.553102 1.547415 0.000000
-1.805925 1.585148 0.000000
0.321546 1.637269 0.000000
0.314504 1.630355 0.000000
0.294288 1.621621 0.000000
0.261148 1.611970 0.000000
0.214872 1.602328 0.000000
0.155582 1.593303 0.000000
0.082982 1.585737 0.000000
-0.003190 1.580183 0.000000
-0.103148 1.577248 0.000000
-0.217370 1.577173 0.000000
-0.346198 1.580203 0.000000
-0.489890 1.586662 0.000000
-0.648955 1.596637 0.000000
-0.823510 1.610553 0.000000
-1.014258 1.628172 0.000000
-1.221077 1.649742 0.000000
-1.444494 1.674989 0.000000
-1.684529 1.704362 0.000000
-1.941238 1.738249 0.000000
0.321692 1.796106 0.000000
0.305479 1.790386 0.000000
0.276151 1.783129 0.000000
0.233647 1.775202 0.000000
0.178251 1.767360 0.000000
0.109536 1.760280 0.000000
0.027624 1.754517 0.000000
-0.067745 1.750504 0.000000
-0.176759 1.748771 0.000000
-0.299630 1.749574 0.000000
-0.436772 1.753197 0.000000
-0.588343 1.759805 0.000000
-0.754855 1.769389 0.000000
-0.936227 1.782228 0.000000
-1.133061 1.798188 0.000000
-1.345106 1.817575 0.000000
-1.573080 1.840386 0.000000
-1.817021 1.866821 0.000000
-2.077444 1.897409 0.000000
0.312927 1.963705 0.000000
0.287436 1.958938 0.000000
0.248719 1.952916 0.000000
0.196989 1.946420 0.000000
0.132215 1.940189 0.000000
0.054506 1.934599 0.000000
-0.036293 1.930179 0.000000
-0.140448 1.927327 0.000000
-0.257877 1.926483 0.000000
-0.389008 1.927904 0.000000
-0.533797 1.931796 0.000000
-0.692572 1.938340 0.000000
-0.865507 1.947428 0.000000
-1.052789 1.959235 0.000000
-1.254738 1.973621 0.000000
-1.471536 1.990971 0.000000
-1.703519 2.011355 0.000000
-1.950981 2.034989 0.000000
-2.214631 2.062295 0.000000
0.295204 2.139712 0.000000
0.260146 2.135605 0.000000
0.212046 2.130557 0.000000
0.151078 2.125191 0.000000
0.077403 2.119984 0.000000
-0.009155 2.115520 0.000000
-0.108567 2.112252 0.000000
-0.220908 2.110319 0.000000
-0.346295 2.110155 0.000000
-0.484816 2.111860 0.000000
-0.636635 2.115704 0.000000
-0.801777 2.121826 0.000000
-0.980570 2.130252 0.000000
-1.173001 2.141132 0.000000
-1.379543 2.154276 0.000000
-1.600322 2.169802 0.000000
-1.835683 2.187852 0.000000
-2.086214 2.208676 0.000000
-2.352347 2.232497 0.000000
0.268171 2.323400 0.000000
0.223603 2.319774 0.000000
0.166263 2.315336 0.000000
0.096400 2.310724 0.000000
0.013897 2.306394 0.000000
-0.081164 2.302715 0.000000
-0.188598 2.300090 0.000000
-0.308757 2.298773 0.000000
-0.441370 2.299062 0.000000
-0.586772 2.301037 0.000000
-0.744872 2.304876 0.000000
-0.915806 2.310650 0.000000
-1.099765 2.318358 0.000000
-1.296738 2.328118 0.000000
-1.507156 2.339830 0.000000
-1.731246 2.353513 0.000000
-1.969522 2.369316 0.000000
-2.222406 2.387389 0.000000
-2.490648 2.407986 0.000000
0.231887 2.514060 0.000000
0.177998 2.510577 0.000000
0.111586 2.506597 0.000000
0.032973 2.502604 0.000000
-0.057888 2.498783 0.000000
-0.160913 2.495583 0.000000
-0.276127 2.493443 0.000000
-0.403500 2.492477 0.000000
-0.542931 2.493036 0.000000
-0.694595 2.495129 0.000000
-0.858308 2.498881 0.000000
-1.034340 2.504290 0.000000
-1.222680 2.511275 0.000000
-1.423578 2.519926 0.000000
-1.637281 2.530185 0.000000
-1.864199 2.542057 0.000000
-2.104811 2.555593 0.000000
-2.359603 2.570971 0.000000
-2.629433 2.588395 0.000000
0.186496 2.710959 0.000000
0.123287 2.707489 0.000000
0.048185 2.703756 0.000000
-0.038768 2.700035 0.000000
-0.137657 2.696628 0.000000
-0.248365 2.693902 0.000000
-0.370705 2.691998 0.000000
-0.504775 2.691238 0.000000
-0.650439 2.691784 0.000000
-0.807679 2.693755 0.000000
-0.976551 2.697243 0.000000
-1.156979 2.702208 0.000000
-1.349224 2.708577 0.000000
-1.553399 2.716250 0.000000
-1.769828 2.725192 0.000000
-1.998988 2.735286 0.000000
-2.241348 2.746564 0.000000
-2.497635 2.759201 0.000000
-2.768407 2.773293 0.000000
0.131879 2.913462 0.000000
0.059870 2.909846 0.000000
-0.023598 2.906092 0.000000
-0.118625 2.902494 0.000000
-0.225205 2.899259 0.000000
-0.342862 2.896688 0.000000
-0.472066 2.894969 0.000000
-0.612235 2.894391 0.000000
-0.763606 2.894991 0.000000
-0.925950 2.896923 0.000000
-1.099240 2.900148 0.000000
-1.283608 2.904655 0.000000
-1.479036 2.910293 0.000000
-1.685935 2.916896 0.000000
-1.904505 2.924408 0.000000
-2.135330 2.932680 0.000000
-2.379013 2.941741 0.000000
-2.636075 2.951634 0.000000
-2.907469 2.962468 0.000000
0.068315 3.120821 0.000000
-0.012028 3.117059 0.000000
-0.103592 3.113171 0.000000
-0.206292 3.109435 0.000000
-0.319850 3.106161 0.000000
-0.444468 3.103652 0.000000
-0.579778 3.102093 0.000000
-0.725715 3.101608 0.000000
-0.882170 3.102326 0.000000
-1.048986 3.104201 0.000000
-1.226197 3.107192 0.000000
-1.413756 3.111211 0.000000
-1.611869 3.116081 0.000000
-1.820859 3.121603 0.000000
-2.041020 3.127670 0.000000
-2.273046 3.134082 0.000000
-2.517491 3.140871 0.000000
-2.774909 3.148070 0.000000
-3.046522 3.155814 0.000000
-0.003861 3.332364 0.000000
-0.092239 3.328315 0.000000
-0.191443 3.324191 0.000000
-0.301327 3.320332 0.000000
-0.421766 3.317110 0.000000
-0.552675 3.314583 0.000000
-0.693626 3.313027 0.000000
-0.844819 3.312535 0.000000
-1.005773 3.313223 0.000000
-1.176509 3.315022 0.000000
-1.357010 3.317824 0.000000
-1.547209 3.321440 0.000000
-1.747411 3.325641 0.000000
-1.957932 3.330139 0.000000
-2.179113 3.334737 0.000000
-2.411865 3.339229 0.000000
-2.656492 3.343670 0.000000
-2.914067 3.348109 0.000000
-3.185177 3.352640 0.000000
-0.084466 3.547306 0.000000
-0.180516 3.542952 0.000000
-0.287002 3.538631 0.000000
-0.403735 3.534703 0.000000
-0.530512 3.531336 0.000000
-0.667044 3.528802 0.000000
-0.813427 3.527274 0.000000
-0.969175 3.526860 0.000000
-1.134132 3.527595 0.000000
-1.308292 3.529384 0.000000
-1.491397 3.532012 0.000000
-1.683700 3.535229 0.000000
-1.885371 3.538680 0.000000
-2.096768 3.542082 0.000000
-2.318531 3.545186 0.000000
-2.551406 3.547742 0.000000
-2.795853 3.549772 0.000000
-3.053005 3.551324 0.000000
-3.323256 3.552571 0.000000
-0.173345 3.765409 0.000000
-0.276660 3.760616 0.000000
-0.390011 3.755927 0.000000
-0.513032 3.751705 0.000000
-0.645668 3.748245 0.000000
-0.787706 3.745807 0.000000
-0.938783 3.744461 0.000000
-1.098609 3.744265 0.000000
-1.267101 3.745168 0.000000
-1.443876 3.746979 0.000000
-1.629114 3.749466 0.000000
-1.822773 3.752249 0.000000
-2.025320 3.754926 0.000000
-2.237123 3.757209 0.000000
-2.458924 3.758732 0.000000
-2.691354 3.759317 0.000000
-2.935405 3.758943 0.000000
-3.191615 3.757718 0.000000
-3.460814 3.755915 0.000000
-0.270143 3.986363 0.000000
-0.380342 3.980958 0.000000
-0.500014 3.975840 0.000000
-0.629141 3.971368 0.000000
-0.767285 3.967856 0.000000
-0.914175 3.965416 0.000000
-1.069450 3.964199 0.000000
-1.232916 3.964224 0.000000
-1.404102 3.965343 0.000000
-1.583087 3.967322 0.000000
-1.769661 3.969756 0.000000
-1.964153 3.972194 0.000000
-2.166947 3.974152 0.000000
-2.378595 3.975244 0.000000
-2.599932 3.975077 0.000000
-2.831621 3.973626 0.000000
-3.074743 3.970801 0.000000
-3.329913 3.966772 0.000000
-3.597709 3.961904 0.000000
-0.374539 4.209214 0.000000
-0.491228 4.203286 0.000000
-0.617146 4.197859 0.000000
-0.751802 4.193227 0.000000
-0.894947 4.189651 0.000000
-1.046237 4.187339 0.000000
-1.205263 4.186438 0.000000
-1.371587 4.186825 0.000000
-1.545095 4.188274 0.000000
-1.725415 4.190452 0.000000
-1.912761 4.192834 0.000000
-2.107414 4.194895 0.000000
-2.309889 4.196024 0.000000
-2.520775 4.195881 0.000000
-2.741227 4.194016 0.000000
-2.971905 4.190390 0.000000
-3.213643 4.184984 0.000000
-3.467486 4.178043 0.000000
-3.733845 4.170063 0.000000
-0.486482 4.433599 0.000000
-0.609427 4.427161 0.000000
-0.740871 4.421359 0.000000
-0.880742 4.416546 0.000000
-1.028490 4.413082 0.000000
-1.183684 4.411173 0.000000
-1.345861 4.410717 0.000000
-1.514543 4.411660 0.000000
-1.689481 4.413633 0.000000
-1.870534 4.416066 0.000000
-2.057981 4.418401 0.000000
-2.252040 4.420028 0.000000
-2.453699 4.420311 0.000000
-2.663498 4.418870 0.000000
-2.882563 4.415279 0.000000
-3.111803 4.409430 0.000000
-3.352131 4.401480 0.000000
-3.604403 4.391700 0.000000
-3.869168 4.380694 0.000000
-0.605727 4.659124 0.000000
-0.734272 4.652054 0.000000
-0.871263 4.645878 0.000000
-1.015830 4.641145 0.000000
-1.167801 4.637975 0.000000
-1.326277 4.636502 0.000000
-1.490887 4.636741 0.000000
-1.661284 4.638392 0.000000
-1.836821 4.640959 0.000000
-2.017902 4.643747 0.000000
-2.204643 4.646067 0.000000
-2.397772 4.647215 0.000000
-2.597953 4.646617 0.000000
-2.806310 4.643816 0.000000
-3.023720 4.638485 0.000000
-3.251309 4.630539 0.000000
-3.490000 4.620094 0.000000
-3.740724 4.607468 0.000000
-4.003696 4.593449 0.000000
-0.731838 4.885531 0.000000
-0.866108 4.877860 0.000000
-1.007934 4.871478 0.000000
-1.157048 4.866718 0.000000
-1.312329 4.863943 0.000000
-1.473656 4.863184 0.000000
-1.640192 4.864332 0.000000
-1.811125 4.866873 0.000000
-1.986711 4.870170 0.000000
-2.167055 4.873328 0.000000
-2.352469 4.875641 0.000000
-2.544030 4.876286 0.000000