# vtk DataFile Version 2.0
cook_membrance_guass3
ASCII
DATASET POLYDATA
POINTS 1326 float
0.000000 0.000000 0.000000
48.000000 44.000000 0.000000
48.000000 60.000000 0.000000
0.000000 44.000000 0.000000
1.497563 1.372766 0.000000
2.965762 2.718615 0.000000
4.405172 4.038075 0.000000
5.816359 5.331663 0.000000
7.199876 6.599886 0.000000
8.556264 7.843242 0.000000
9.886057 9.062219 0.000000
11.189776 10.257295 0.000000
12.467931 11.428937 0.000000
13.721025 12.577606 0.000000
14.949548 13.703752 0.000000
16.153982 14.807817 0.000000
17.334801 15.890234 0.000000
18.492465 16.951427 0.000000
19.627431 17.991812 0.000000
20.740142 19.011797 0.000000
21.831035 20.011782 0.000000
22.900539 20.992160 0.000000
23.949071 21.953315 0.000000
24.977044 22.895624 0.000000
25.984861 23.819456 0.000000
26.972917 24.725174 0.000000
27.941599 25.613133 0.000000
28.891287 26.483680 0.000000
29.822354 27.337158 0.000000
30.735165 28.173901 0.000000
31.630078 28.994238 0.000000
32.507443 29.798489 0.000000
33.367605 30.586971 0.000000
34.210901 31.359992 0.000000
35.037662 32.117857 0.000000
35.848212 32.860861 0.000000
36.642868 33.589296 0.000000
37.421943 34.303448 0.000000
38.185743 35.003597 0.000000
38.934565 35.690018 0.000000
39.668705 36.362980 0.000000
40.388450 37.022746 0.000000
41.094083 37.669576 0.000000
41.785879 38.303723 0.000000
42.464111 38.925435 0.000000
43.129044 39.534957 0.000000
43.780940 40.132528 0.000000
44.420053 40.718382 0.000000
45.046634 41.292748 0.000000
45.660930 41.855852 0.000000
46.263180 42.407915 0.000000
46.853622 42.949153 0.000000
47.432486 43.479779 0.000000
48.000000 44.640000 0.000000
48.000000 45.280000 0.000000
48.000000 45.920000 0.000000
48.000000 46.560000 0.000000
48.000000 47.200000 0.000000
48.000000 47.840000 0.000000
48.000000 48.480000 0.000000
48.000000 49.120000 0.000000
48.000000 49.760000 0.000000
48.000000 50.400000 0.000000
48.000000 51.040000 0.000000
48.000000 51.680000 0.000000
48.000000 52.320000 0.000000
48.000000 52.960000 0.000000
48.000000 53.600000 0.000000
48.000000 54.240000 0.000000
48.000000 54.880000 0.000000
48.000000 55.520000 0.000000
48.000000 56.160000 0.000000
48.000000 56.800000 0.000000
48.000000 57.440000 0.000000
48.000000 58.080000 0.000000
48.000000 58.720000 0.000000
48.000000 59.360000 0.000000
47.432486 59.810829 0.000000
46.853622 59.617874 0.000000
46.263180 59.421060 0.000000
45.660929 59.220310 0.000000
45.046634 59.015545 0.000000
44.420053 58.806684 0.000000
43.780940 58.593647 0.000000
43.129044 58.376348 0.000000
42.464111 58.154704 0.000000
41.785879 57.928626 0.000000
41.094083 57.698028 0.000000
40.388450 57.462817 0.000000
39.668705 57.222902 0.000000
38.934565 56.978188 0.000000
38.185743 56.728581 0.000000
37.421943 56.473981 0.000000
36.642868 56.214289 0.000000
35.848212 55.949404 0.000000
35.037662 55.679221 0.000000
34.210901 55.403634 0.000000
33.367605 55.122535 0.000000
32.507443 54.835814 0.000000
31.630078 54.543359 0.000000
30.735165 54.245055 0.000000
29.822354 53.940785 0.000000
28.891287 53.630429 0.000000
27.941599 53.313866 0.000000
26.972917 52.990972 0.000000
25.984861 52.661620 0.000000
24.977044 52.325681 0.000000
23.949071 51.983024 0.000000
22.900539 51.633513 0.000000
21.831035 51.277012 0.000000
20.740142 50.913381 0.000000
19.627431 50.542477 0.000000
18.492465 50.164155 0.000000
17.334801 49.778267 0.000000
16.153982 49.384661 0.000000
14.949548 48.983183 0.000000
13.721025 48.573675 0.000000
12.467931 48.155977 0.000000
11.189776 47.729925 0.000000
9.886057 47.295352 0.000000
8.556264 46.852088 0.000000
7.199876 46.399959 0.000000
5.816359 45.938786 0.000000
4.405172 45.468391 0.000000
2.965762 44.988587 0.000000
1.497563 44.499188 0.000000
0.000000 42.240000 0.000000
0.000000 40.480000 0.000000
0.000000 38.720000 0.000000
0.000000 36.960000 0.000000
0.000000 35.200000 0.000000
0.000000 33.440000 0.000000
0.000000 31.680000 0.000000
0.000000 29.920000 0.000000
0.000000 28.160000 0.000000
0.000000 26.400000 0.000000
0.000000 24.640000 0.000000
0.000000 22.880000 0.000000
0.000000 21.120000 0.000000
0.000000 19.360000 0.000000
0.000000 17.600000 0.000000
0.000000 15.840000 0.000000
0.000000 14.080000 0.000000
0.000000 12.320000 0.000000
0.000000 10.560000 0.000000
0.000000 8.800000 0.000000
0.000000 7.040000 0.000000
0.000000 5.280000 0.000000
0.000000 3.520000 0.000000
0.000000 1.760000 0.000000
1.497563 3.097823 0.000000
1.497563 4.822880 0.000000
1.497563 6.547937 0.000000
1.497563 8.272993 0.000000
1.497563 9.998050 0.000000
1.497563 11.723107 0.000000
1.497563 13.448164 0.000000
1.497563 15.173221 0.000000
1.497563 16.898278 0.000000
1.497563 18.623335 0.000000
1.497563 20.348391 0.000000
1.497563 22.073448 0.000000
1.497563 23.798505 0.000000
1.497563 25.523562 0.000000
1.497563 27.248619 0.000000
1.497563 28.973676 0.000000
1.497563 30.698733 0.000000
1.497563 32.423790 0.000000
1.497563 34.148846 0.000000
1.497563 35.873903 0.000000
1.497563 37.598960 0.000000
1.497563 39.324017 0.000000
1.497563 41.049074 0.000000
1.497563 42.774131 0.000000
2.965762 4.409414 0.000000
2.965762 6.100213 0.000000
2.965762 7.791012 0.000000
2.965762 9.481810 0.000000
2.965762 11.172609 0.000000
2.965762 12.863408 0.000000
2.965762 14.554207 0.000000
2.965762 16.245006 0.000000
2.965762 17.935805 0.000000
2.965762 19.626604 0.000000
2.965762 21.317403 0.000000
2.965762 23.008202 0.000000
2.965762 24.699000 0.000000
2.965762 26.389799 0.000000
2.965762 28.080598 0.000000
2.965762 29.771397 0.000000
2.965762 31.462196 0.000000
2.965762 33.152995 0.000000
2.965762 34.843794 0.000000
2.965762 36.534593 0.000000
2.965762 38.225392 0.000000
2.965762 39.916191 0.000000
2.965762 41.606989 0.000000
2.965762 43.297788 0.000000
4.405172 5.695287 0.000000
4.405172 7.352500 0.000000
4.405172 9.009713 0.000000
4.405172 10.666925 0.000000
4.405172 12.324138 0.000000
4.405172 13.981350 0.000000
4.405172 15.638563 0.000000
4.405172 17.295776 0.000000
4.405172 18.952988 0.000000
4.405172 20.610201 0.000000
4.405172 22.267414 0.000000
4.405172 23.924626 0.000000
4.405172 25.581839 0.000000
4.405172 27.239052 0.000000
4.405172 28.896264 0.000000
4.405172 30.553477 0.000000
4.405172 32.210690 0.000000
4.405172 33.867902 0.000000
4.405172 35.525115 0.000000
4.405172 37.182328 0.000000
4.405172 38.839540 0.000000
4.405172 40.496753 0.000000
4.405172 42.153965 0.000000
4.405172 43.811178 0.000000
5.816359 6.955948 0.000000
5.816359 8.580232 0.000000
5.816359 10.204517 0.000000
5.816359 11.828802 0.000000
5.816359 13.453087 0.000000
5.816359 15.077372 0.000000
5.816359 16.701657 0.000000
5.816359 18.325942 0.000000
5.816359 19.950227 0.000000
5.816359 21.574512 0.000000
5.816359 23.198797 0.000000
5.816359 24.823082 0.000000
5.816359 26.447367 0.000000
5.816359 28.071652 0.000000
5.816359 29.695937 0.000000
5.816359 31.320222 0.000000
5.816359 32.944507 0.000000
5.816359 34.568792 0.000000
5.816359 36.193077 0.000000
5.816359 37.817362 0.000000
5.816359 39.441647 0.000000
5.816359 41.065932 0.000000
5.816359 42.690216 0.000000
5.816359 44.314501 0.000000
7.199876 8.191889 0.000000
7.199876 9.783892 0.000000
7.199876 11.375895 0.000000
7.199876 12.967898 0.000000
7.199876 14.559901 0.000000
7.199876 16.151903 0.000000
7.199876 17.743906 0.000000
7.199876 19.335909 0.000000
7.199876 20.927912 0.000000
7.199876 22.519915 0.000000
7.199876 24.111918 0.000000
7.199876 25.703921 0.000000
7.199876 27.295924 0.000000
7.199876 28.887927 0.000000
7.199876 30.479930 0.000000
7.199876 32.071932 0.000000
7.199876 33.663935 0.000000
7.199876 35.255938 0.000000
7.199876 36.847941 0.000000
7.199876 38.439944 0.000000
7.199876 40.031947 0.000000
7.199876 41.623950 0.000000
7.199876 43.215953 0.000000
7.199876 44.807956 0.000000
8.556264 9.403596 0.000000
8.556264 10.963950 0.000000
8.556264 12.524304 0.000000
8.556264 14.084658 0.000000
8.556264 15.645012 0.000000
8.556264 17.205365 0.000000
8.556264 18.765719 0.000000
8.556264 20.326073 0.000000
8.556264 21.886427 0.000000
8.556264 23.446781 0.000000
8.556264 25.007135 0.000000
8.556264 26.567488 0.000000
8.556264 28.127842 0.000000
8.556264 29.688196 0.000000
8.556264 31.248550 0.000000
8.556264 32.808904 0.000000
8.556264 34.369258 0.000000
8.556264 35.929611 0.000000
8.556264 37.489965 0.000000
8.556264 39.050319 0.000000
8.556264 40.610673 0.000000
8.556264 42.171027 0.000000
8.556264 43.731380 0.000000
8.556264 45.291734 0.000000
9.886057 10.591545 0.000000
9.886057 12.120870 0.000000
9.886057 13.650195 0.000000
9.886057 15.179521 0.000000
9.886057 16.708846 0.000000
9.886057 18.238171 0.000000
9.886057 19.767497 0.000000
9.886057 21.296822 0.000000
9.886057 22.826147 0.000000
9.886057 24.355473 0.000000
9.886057 25.884798 0.000000
9.886057 27.414123 0.000000
9.886057 28.943449 0.000000
9.886057 30.472774 0.000000
9.886057 32.002099 0.000000
9.886057 33.531425 0.000000
9.886057 35.060750 0.000000
9.886057 36.590075 0.000000
9.886057 38.119400 0.000000
9.886057 39.648726 0.000000
9.886057 41.178051 0.000000
9.886057 42.707376 0.000000
9.886057 44.236702 0.000000
9.886057 45.766027 0.000000
11.189776 11.756200 0.000000
11.189776 13.255105 0.000000
11.189776 14.754010 0.000000
11.189776 16.252916 0.000000
11.189776 17.751821 0.000000
11.189776 19.250726 0.000000
11.189776 20.749631 0.000000
11.189776 22.248536 0.000000
11.189776 23.747442 0.000000
11.189776 25.246347 0.000000
11.189776 26.745252 0.000000
11.189776 28.244157 0.000000
11.189776 29.743063 0.000000
11.189776 31.241968 0.000000
11.189776 32.740873 0.000000
11.189776 34.239778 0.000000
11.189776 35.738683 0.000000
11.189776 37.237589 0.000000
11.189776 38.736494 0.000000
11.189776 40.235399 0.000000
11.189776 41.734304 0.000000
11.189776 43.233210 0.000000
11.189776 44.732115 0.000000
11.189776 46.231020 0.000000
12.467931 12.898019 0.000000
12.467931 14.367100 0.000000
12.467931 15.836182 0.000000
12.467931 17.305263 0.000000
12.467931 18.774345 0.000000
12.467931 20.243427 0.000000
12.467931 21.712508 0.000000
[...]
POINT_DATA 1326
VECTORS U float
0.000000 -0.000000 0.000000
-1.850006 6.706086 0.000000
-5.634412 6.738497 0.000000
-0.000046 0.000038 0.000000
0.000352 0.095366 0.000000
0.001311 0.189148 0.000000
0.003383 0.276768 0.000000
0.006535 0.357041 0.000000
0.010522 0.433765 0.000000
0.018053 0.506239 0.000000
0.030712 0.575646 0.000000
0.048149 0.643885 0.000000
0.070180 0.712448 0.000000
0.095959 0.783478 0.000000
0.124567 0.858495 0.000000
0.154665 0.938440 0.000000
0.185093 1.024184 0.000000
0.214854 1.116311 0.000000
0.242658 1.215118 0.000000
0.267602 1.320800 0.000000
0.288909 1.433505 0.000000
0.305804 1.552775 0.000000
0.317723 1.678546 0.000000
0.324324 1.810257 0.000000
0.325147 1.947615 0.000000
0.320113 2.090073 0.000000
0.308976 2.237380 0.000000
0.291796 2.388851 0.000000
0.268509 2.544149 0.000000
0.239267 2.702881 0.000000
0.204100 2.864567 0.000000
0.163155 3.028873 0.000000
0.116635 3.195383 0.000000
0.064696 3.363812 0.000000
0.007508 3.533887 0.000000
-0.054726 3.705169 0.000000
-0.121828 3.877470 0.000000
-0.193593 4.050547 0.000000
-0.269796 4.223989 0.000000
-0.350368 4.397746 0.000000
-0.435008 4.571469 0.000000
-0.523561 4.744822 0.000000
-0.615967 4.917742 0.000000
-0.711951 5.089932 0.000000
-0.811339 5.261126 0.000000
-0.914131 5.430923 0.000000
-1.020192 5.599271 0.000000
-1.129059 5.765981 0.000000
-1.241131 5.930221 0.000000
-1.356269 6.092047 0.000000
-1.473918 6.251083 0.000000
-1.594357 6.406848 0.000000
-1.719319 6.558392 0.000000
-1.982455 6.697133 0.000000
-2.107346 6.693872 0.000000
-2.228434 6.693354 0.000000
-2.349268 6.694858 0.000000
-2.470437 6.698671 0.000000
-2.592387 6.704441 0.000000
-2.715542 6.711375 0.000000
-2.840652 6.719161 0.000000
-2.968043 6.727601 0.000000
-3.097518 6.736623 0.000000
-3.229876 6.745989 0.000000
-3.365233 6.755392 0.000000
-3.504001 6.764536 0.000000
-3.646206 6.773430 0.000000
-3.792212 6.781703 0.000000
-3.942399 6.789202 0.000000
-4.097642 6.795832 0.000000
-4.257697 6.801027 0.000000
-4.423340 6.804372 0.000000
-4.595396 6.805655 0.000000
-4.774862 6.804869 0.000000
-4.964128 6.801289 0.000000
-5.165691 6.793400 0.000000
-5.384483 6.776359 0.000000
-5.499854 6.521596 0.000000
-5.379197 6.327774 0.000000
-5.265696 6.146389 0.000000
-5.156550 5.971276 0.000000
-5.050849 5.799989 0.000000
-4.947682 5.631267 0.000000
-4.846048 5.464985 0.000000
-4.744846 5.299840 0.000000
-4.644105 5.136209 0.000000
-4.543616 4.973487 0.000000
-4.443114 4.811389 0.000000
-4.342184 4.649757 0.000000
-4.240673 4.488703 0.000000
-4.138413 4.328293 0.000000
-4.035175 4.168271 0.000000
-3.931109 4.009106 0.000000
-3.826020 3.850784 0.000000
-3.719819 3.693219 0.000000
-3.612648 3.536989 0.000000
-3.504376 3.381986 0.000000
-3.395096 3.228302 0.000000
-3.284960 3.076450 0.000000
-3.173873 2.926432 0.000000
-3.061965 2.778329 0.000000
-2.949432 2.632580 0.000000
-2.836240 2.489288 0.000000
-2.722468 2.348550 0.000000
-2.608273 2.210621 0.000000
-2.493749 2.075750 0.000000
-2.378922 1.943963 0.000000
-2.263894 1.815521 0.000000
-2.148790 1.690817 0.000000
-2.033592 1.569593 0.000000
-1.918280 1.452159 0.000000
-1.803019 1.338889 0.000000
-1.687770 1.229617 0.000000
-1.572350 1.124843 0.000000
-1.456919 1.024456 0.000000
-1.341176 0.929101 0.000000
-1.224932 0.837951 0.000000
-1.108289 0.751751 0.000000
-0.990223 0.671398 0.000000
-0.870710 0.593806 0.000000
-0.748412 0.527059 0.000000
-0.618462 0.460804 0.000000
-0.480212 0.393572 0.000000
-0.320052 0.335006 0.000000
-0.146953 0.250723 0.000000
-0.031624 0.133758 0.000000
0.000004 0.000000 0.000000
0.000012 0.000000 0.000000
0.000009 0.000002 0.000000
0.000007 0.000005 0.000000
0.000008 0.000003 0.000000
0.000006 -0.000002 0.000000
0.000001 -0.000003 0.000000
0.000000 0.000000 0.000000
0.000001 0.000001 0.000000
0.000000 -0.000002 0.000000
0.000000 -0.000001 0.000000
0.000000 0.000002 0.000000
0.000000 0.000001 0.000000
0.000000 -0.000000 0.000000
0.000001 0.000001 0.000000
0.000001 0.000002 0.000000
0.000001 0.000001 0.000000
0.000001 0.000000 0.000000
0.000001 0.000001 0.000000
0.000001 0.000001 0.000000
0.000000 0.000001 0.000000
0.000000 0.000000 0.000000
-0.000000 0.000001 0.000000
-0.000000 0.000000 0.000000
0.000345 0.094680 0.000000
0.000437 0.093870 0.000000
0.000597 0.092769 0.000000
0.000799 0.091179 0.000000
0.001175 0.088828 0.000000
0.001802 0.085398 0.000000
0.002461 0.080580 0.000000
0.002978 0.074329 0.000000
0.003571 0.066840 0.000000
0.004287 0.058098 0.000000
0.004618 0.048159 0.000000
0.004480 0.037774 0.000000
0.004649 0.027488 0.000000
0.005153 0.016719 0.000000
0.004922 0.005433 0.000000
0.004125 -0.004966 0.000000
0.004219 -0.014200 0.000000
0.004436 -0.023379 0.000000
0.002111 -0.030272 0.000000
-0.002501 -0.029668 0.000000
-0.007742 -0.018316 0.000000
-0.013030 0.003912 0.000000
-0.018901 0.036512 0.000000
-0.020681 0.078377 0.000000
0.001541 0.187503 0.000000
0.002035 0.185601 0.000000
0.002992 0.182961 0.000000
0.004565 0.178593 0.000000
0.006418 0.172178 0.000000
0.008619 0.163915 0.000000
0.011047 0.153145 0.000000
0.013105 0.139625 0.000000
0.014849 0.124450 0.000000
0.016558 0.108183 0.000000
0.017533 0.090125 0.000000
0.017499 0.070746 0.000000
0.017684 0.052013 0.000000
0.018296 0.034148 0.000000
0.017686 0.015318 0.000000
0.015577 -0.003337 0.000000
0.013868 -0.017623 0.000000
0.010312 -0.026429 0.000000
0.000488 -0.029835 0.000000
-0.015560 -0.023042 0.000000
-0.031938 -0.000395 0.000000
-0.043611 0.030254 0.000000
-0.059707 0.069424 0.000000
-0.078373 0.134563 0.000000
0.004045 0.274005 0.000000
0.005679 0.270867 0.000000
0.009060 0.266147 0.000000
0.012939 0.258700 0.000000
0.016970 0.248313 0.000000
0.021918 0.234905 0.000000
0.026626 0.218414 0.000000
0.029880 0.199293 0.000000
0.032591 0.178308 0.000000
0.035568 0.155845 0.000000
0.037173 0.131842 0.000000
0.036469 0.107137 0.000000
0.035654 0.083434 0.000000
0.036410 0.060971 0.000000
0.034895 0.038875 0.000000
0.028076 0.019750 0.000000
0.019853 0.007411 0.000000
0.009066 0.002339 0.000000
-0.010283 0.003849 0.000000
-0.039622 0.014709 0.000000
-0.059169 0.035247 0.000000
-0.078127 0.064460 0.000000
-0.115876 0.115027 0.000000
-0.181207 0.200459 0.000000
0.008269 0.353845 0.000000
0.012906 0.349550 0.000000
0.019410 0.342657 0.000000
0.026349 0.331960 0.000000
0.033854 0.317361 0.000000
0.041218 0.299634 0.000000
0.047293 0.278970 0.000000
0.052082 0.255230 0.000000
0.056231 0.229239 0.000000
0.059261 0.202409 0.000000
0.059908 0.175212 0.000000
0.058685 0.147326 0.000000
0.057381 0.119853 0.000000
0.055384 0.095733 0.000000
0.048110 0.075838 0.000000
0.036233 0.058911 0.000000
0.021346 0.046687 0.000000
0.000805 0.043300 0.000000
-0.029420 0.047383 0.000000
-0.064130 0.057785 0.000000
-0.090417 0.081737 0.000000
-0.136214 0.128971 0.000000
-0.197203 0.197477 0.000000
-0.309405 0.286504 0.000000
0.015991 0.430118 0.000000
0.024904 0.423869 0.000000
0.035094 0.413988 0.000000
0.045693 0.400088 0.000000
0.055941 0.382313 0.000000
0.065090 0.361021 0.000000
0.072674 0.336632 0.000000
0.078666 0.309864 0.000000
0.082959 0.281522 0.000000
0.084897 0.252268 0.000000
0.084525 0.222730 0.000000
0.082419 0.193853 0.000000
0.078127 0.167053 0.000000
0.070111 0.143707 0.000000
0.057221 0.124107 0.000000
0.040000 0.109557 0.000000
0.015670 0.101564 0.000000
-0.014334 0.101112 0.000000
-0.053588 0.107175 0.000000
-0.094516 0.123211 0.000000
-0.141856 0.155380 0.000000
-0.210228 0.204670 0.000000
-0.298308 0.278477 0.000000
-0.441042 0.368190 0.000000
0.028942 0.501707 0.000000
0.042054 0.493797 0.000000
0.056066 0.481687 0.000000
0.069811 0.465187 0.000000
0.082185 0.444787 0.000000
0.092706 0.421076 0.000000
0.101085 0.394510 0.000000
0.107203 0.365908 0.000000
0.110696 0.336213 0.000000
0.111232 0.306026 0.000000
0.108863 0.276216 0.000000
0.103657 0.248075 0.000000
0.094771 0.222768 0.000000
0.080898 0.200991 0.000000
0.061119 0.183902 0.000000
0.035735 0.172562 0.000000
0.002626 0.167226 0.000000
-0.036522 0.169969 0.000000
-0.085222 0.179888 0.000000
-0.137928 0.201935 0.000000
-0.206219 0.240359 0.000000
-0.295867 0.294791 0.000000
-0.412552 0.367705 0.000000
-0.568395 0.446931 0.000000
0.046572 0.570501 0.000000
0.064131 0.561039 0.000000
0.081562 0.547084 0.000000
0.097455 0.528922 0.000000
0.111215 0.506936 0.000000
0.122488 0.481806 0.000000
0.130840 0.454313 0.000000
0.135988 0.425296 0.000000
0.137792 0.395581 0.000000
0.136011 0.365987 0.000000
0.130551 0.337442 0.000000
0.120678 0.311090 0.000000
0.105966 0.288350 0.000000
0.085266 0.269463 0.000000
0.058339 0.255221 0.000000
0.024395 0.246750 0.000000
-0.017683 0.244663 0.000000
-0.066755 0.250370 0.000000
-0.125996 0.265069 0.000000
-0.195520 0.292478 0.000000
-0.283072 0.334370 0.000000
-0.390925 0.388204 0.000000
-0.525248 0.454015 0.000000
-0.687388 0.522764 0.000000
0.069062 0.638058 0.000000
0.090242 0.627677 0.000000
0.110002 0.612691 0.000000
0.127370 0.593500 0.000000
0.141724 0.570806 0.000000
0.152702 0.545403 0.000000
0.159992 0.518063 0.000000
0.163365 0.489585 0.000000
0.162595 0.460856 0.000000
0.157382 0.432803 0.000000
0.147507 0.406568 0.000000
0.132002 0.382677 0.000000
0.111016 0.362268 0.000000
0.082984 0.346031 0.000000
0.048242 0.334946 0.000000
0.005202 0.329655 0.000000
-0.045437 0.330755 0.000000
-0.106548 0.340484 0.000000
-0.177398 0.359491 0.000000
-0.263641 0.389402 0.000000
-0.365874 0.430554 0.000000
-0.490360 0.482223 0.000000
-0.635244 0.541780 0.000000
-0.804113 0.605096 0.000000
0.095245 0.706472 0.000000
0.119096 0.695513 0.000000
0.140265 0.680059 0.000000
0.158107 0.660734 0.000000
0.172088 0.638199 0.000000
0.181861 0.613325 0.000000
0.187216 0.586911 0.000000
0.187838 0.559841 0.000000
0.183582 0.532998 0.000000
0.173888 0.507180 0.000000
0.158767 0.483439 0.000000
0.137262 0.462338 0.000000
0.109123 0.444988 0.000000
0.073637 0.431769 0.000000
0.030407 0.423549 0.000000
-0.021409 0.421314 0.000000
-0.082664 0.426084 0.000000
-0.154549 0.438320 0.000000
-0.238855 0.460043 0.000000
-0.338490 0.490899 0.000000
-0.454677 0.531017 0.000000
-0.590331 0.578333 0.000000
-0.744390 0.632539 0.000000
-0.918639 0.690381 0.000000
0.124108 0.777427 0.000000
0.149378 0.766394 0.000000
0.170991 0.750998 0.000000
0.188324 0.732035 0.000000
0.200932 0.710287 0.000000
0.208666 0.686571 0.000000
0.211121 0.661711 0.000000
0.208141 0.636622 0.000000
0.199486 0.612114 0.000000
0.184724 0.588910 0.000000
0.163584 0.567964 0.000000
0.135479 0.549932 0.000000
0.100073 0.535343 0.000000
0.056772 0.525264 0.000000
0.004778 0.520092 0.000000
-0.056336 0.520784 0.000000
-0.127839 0.528026 0.000000
-0.211005 0.542803 0.000000
-0.307435 0.565259 0.000000
-0.418627 0.595435 0.000000
-0.546106 0.633246 0.000000
-0.691046 0.677117 0.000000
-0.852753 0.726783 0.000000
-1.031731 0.780290 0.000000
0.154306 0.852510 0.000000
0.179999 0.841665 0.000000
0.200970 0.826775 0.000000
0.216806 0.808641 0.000000
0.227196 0.788068 0.000000
0.231903 0.766013 0.000000
0.230641 0.743156 0.000000
0.223350 0.720357 0.000000
0.209565 0.698403 0.000000
0.189194 0.678004 0.000000
0.161540 0.659813 0.000000
0.126731 0.644636 0.000000
0.083490 0.633060 0.000000
0.032255 0.625777 0.000000
-0.028587 0.623344 0.000000
-0.099035 0.626546 0.000000
-0.180838 0.635959 0.000000
-0.274309 0.651753 0.000000
-0.381427 0.674374 0.000000
-0.503010 0.703406 0.000000
-0.639711 0.738819 0.000000
-0.792569 0.779456 0.000000
-0.960650 0.825281 0.000000
-1.144293 0.874995 0.000000
0.184769 0.932686 0.000000
0.209750 0.922315 0.000000
0.229063 0.908209 0.000000
0.242490 0.891312 0.000000
0.249696 0.872360 0.000000
0.250654 0.852199 0.000000
0.245024 0.831543 0.000000
0.232686 0.811229 0.000000
0.213366 0.791904 0.000000
0.186793 0.774319 0.000000
0.152581 0.758991 0.000000
0.110338 0.746708 0.000000
0.059721 0.737775 0.000000
-0.000040 0.733126 0.000000
-0.069347 0.733064 0.000000
-0.149241 0.738147 0.000000
-0.240160 0.748644 0.000000
-0.343652 0.765074 0.000000
-0.459874 0.787208 0.000000
-0.590477 0.814764 0.000000
-0.735066 0.847674 0.000000
-0.894782 0.885185 0.000000
-1.068284 0.927380 0.000000
-1.256219 0.973582 0.000000
0.214428 1.018723 0.000000
0.237524 1.009025 0.000000
0.254218 0.996034 0.000000
0.264363 0.980534 0.000000
0.267715 0.963338 0.000000
0.264204 0.945254 0.000000
0.253573 0.926979 0.000000
0.235763 0.909173 0.000000
0.210448 0.892498 0.000000
0.177445 0.877550 0.000000
0.136327 0.864909 0.000000
0.086858 0.855127 0.000000
0.028392 0.848797 0.000000
-0.039389 0.846251 0.000000
-0.117209 0.848040 0.000000
-0.205688 0.854486 0.000000
-0.305622 0.865871 0.000000
-0.417607 0.882070 0.000000
-0.542311 0.903389 0.000000
-0.680409 0.929326 0.000000
-0.831919 0.959953 0.000000
-0.997458 0.994720 0.000000
-1.176024 1.033893 0.000000
-1.368230 1.077152 0.000000
0.242063 1.111283 0.000000
0.262332 1.102398 0.000000
0.275636 1.090574 0.000000
0.281675 1.076646 0.000000
0.280521 1.061367 0.000000
0.271929 1.045412 0.000000
0.255955 1.029421 0.000000
0.232226 1.014035 0.000000
0.200735 0.999848 0.000000
0.161032 0.987421 0.000000
0.113008 0.977221 0.000000
0.056109 0.969796 0.000000
-0.009869 0.965486 0.000000
-0.085597 0.964832 0.000000
-0.171487 0.968037 0.000000
-0.268082 0.975370 0.000000
-0.375943 0.986922 0.000000
-0.495705 1.002781 0.000000
-0.627795 1.022974 0.000000
-0.772635 1.047279 0.000000
-0.930338 1.075848 0.000000
-1.100955 1.108182 0.000000
-1.284192 1.144646 0.000000
-1.479963 1.184884 0.000000
0.266811 1.210544 0.000000
0.283414 1.202572 0.000000
0.292418 1.192099 0.000000
0.293853 1.179766 0.000000
0.287591 1.166326 0.000000
0.273668 1.152404 0.000000
0.251821 1.138639 0.000000
0.222049 1.125561 0.000000
0.184049 1.113705 0.000000
0.137735 1.103538 0.000000
0.082629 1.095532 0.000000
0.018632 1.090076 0.000000
-0.054875 1.087559 0.000000
-0.138026 1.088217 0.000000
-0.231472 1.092318 0.000000
-0.335544 1.100102 0.000000
-0.450770 1.111740 0.000000
-0.577565 1.127118 0.000000
-0.716110 1.146296 0.000000
-0.866965 1.169024 0.000000
-1.029872 1.195376 0.000000
-1.205264 1.225294 0.000000
-1.392547 1.259117 0.000000
-1.591978 1.296870 0.000000
0.287784 1.316785 0.000000
0.299920 1.309733 0.000000
0.304174 1.300463 0.000000
0.300400 1.289681 0.000000
0.288712 1.278034 0.000000
0.268961 1.266109 0.000000
0.241160 1.254389 0.000000
0.205087 1.243394 0.000000
0.160647 1.233587 0.000000
0.107552 1.225435 0.000000
0.045652 1.219250 0.000000
-0.025425 1.215441 0.000000
-0.105913 1.214242 0.000000
-0.196240 1.216018 0.000000
-0.296707 1.220892 0.000000
-0.407727 1.228938 0.000000
-0.529512 1.240252 0.000000
-0.662575 1.254831 0.000000
-0.806990 1.272844 0.000000
-0.963090 1.294090 0.000000
-1.130779 1.318743 0.000000
-1.310369 1.346549 0.000000
-1.501413 1.377891 0.000000
-1.704176 1.412943 0.000000
0.304338 1.429867 0.000000
0.311478 1.423685 0.000000
0.310356 1.415645 0.000000
0.301058 1.406318 0.000000
0.283577 1.396301 0.000000
0.257899 1.386087 0.000000
0.223908 1.376211 0.000000
0.181526 1.367085 0.000000
0.130569 1.359112 0.000000
0.070929 1.352646 0.000000
0.002294 1.348053 0.000000
-0.075500 1.345599 0.000000
-0.162772 1.345543 0.000000
-0.259761 1.348028 0.000000
-0.366717 1.353245 0.000000
-0.484014 1.361310 0.000000
-0.611846 1.372335 0.000000
-0.750547 1.386218 0.000000
-0.900135 1.403049 0.000000
-1.061006 1.422763 0.000000
-1.232913 1.445563 0.000000
-1.416223 1.471375 0.000000
-1.610702 1.500489 0.000000
-1.816495 1.533076 0.000000
0.315907 1.549647 0.000000
0.317537 1.544274 0.000000
0.310760 1.537282 0.000000
0.295630 1.529253 0.000000
0.272197 1.520692 0.000000
0.240377 1.512078 0.000000
0.200167 1.503814 0.000000
0.151452 1.496299 0.000000
0.094127 1.489871 0.000000
0.027986 1.484874 0.000000
-0.047069 1.481549 0.000000
-0.131304 1.480158 0.000000
-0.224879 1.480868 0.000000
-0.328052 1.483897 0.000000
-0.441092 1.489359 0.000000
-0.564139 1.497313 0.000000
-0.697416 1.507854 0.000000
-0.841154 1.520927 0.000000
-0.995412 1.536655 0.000000
-1.160452 1.554914 0.000000
-1.336216 1.575946 0.000000
-1.522905 1.599785 0.000000
-1.720453 1.626697 0.000000
-1.929083 1.656944 0.000000
0.322124 1.675719 0.000000
0.317898 1.671038 0.000000
0.305163 1.665024 0.000000
0.284028 1.658176 0.000000
0.254458 1.650931 0.000000
0.216506 1.643676 0.000000
0.170079 1.636802 0.000000
0.115131 1.630645 0.000000
0.051534 1.625514 0.000000
-0.020795 1.621655 0.000000
-0.102069 1.619330 0.000000
-0.192354 1.618769 0.000000
-0.291944 1.620125 0.000000
-0.400889 1.623521 0.000000
-0.519420 1.629016 0.000000
-0.647736 1.636685 0.000000
-0.785902 1.646643 0.000000
-0.934198 1.658893 0.000000
-1.092621 1.673537 0.000000
-1.261404 1.690495 0.000000
-1.440569 1.709906 0.000000
-1.630286 1.731805 0.000000
-1.830655 1.756515 0.000000
-2.041771 1.784313 0.000000
0.322617 1.807803 0.000000
0.312299 1.803732 0.000000
0.293467 1.798544 0.000000
0.266179 1.792678 0.000000
0.230511 1.786523 0.000000
0.186389 1.780426 0.000000
0.133846 1.774714 0.000000
0.072779 1.769678 0.000000
0.003135 1.765584 0.000000
-0.075196 1.762698 0.000000
-0.162352 1.761173 0.000000
-0.258407 1.761215 0.000000
-0.363509 1.762936 0.000000
-0.477799 1.766493 0.000000
-0.601394 1.771982 0.000000
-0.734478 1.779406 0.000000
-0.877125 1.788822 0.000000
-1.029506 1.800192 0.000000
-1.191641 1.813661 0.000000
-1.363788 1.829231 0.000000
-1.545921 1.847064 0.000000
-1.738371 1.867226 0.000000
-1.941219 1.889893 0.000000
-2.154601 1.915362 0.000000
0.317223 1.945395 0.000000
0.300666 1.941829 0.000000
0.275636 1.937338 0.000000
0.242209 1.932296 0.000000
0.200404 1.927052 0.000000
0.150247 1.921907 0.000000
0.091681 1.917140 0.000000
0.024690 1.913023 0.000000
-0.050813 1.909782 0.000000
-0.134863 1.907610 0.000000
-0.227556 1.906688 0.000000
-0.329014 1.907168 0.000000
-0.439298 1.909166 0.000000
-0.558537 1.912779 0.000000
-0.686792 1.918076 0.000000
-0.824179 1.925103 0.000000
-0.970792 1.933921 0.000000
-1.126809 1.944499 0.000000
-1.292282 1.956935 0.000000
-1.467427 1.971215 0.000000
-1.652300 1.987515 0.000000
-1.847148 2.005899 0.000000
-2.052132 2.026541 0.000000
-2.267555 2.049744 0.000000
0.305761 2.088063 0.000000
0.282941 2.084916 0.000000
0.251715 2.080988 0.000000
0.212178 2.076622 0.000000
0.164345 2.072102 0.000000
0.108240 2.067720 0.000000
0.043832 2.063715 0.000000
-0.028899 2.060304 0.000000
-0.109966 2.057691 0.000000
-0.199472 2.056076 0.000000
-0.297436 2.055596 0.000000
-0.403908 2.056392 0.000000
-0.519004 2.058530 0.000000
-0.642733 2.062113 0.000000
-0.775236 2.067184 0.000000
-0.916571 2.073793 0.000000
-1.066808 2.082004 0.000000
-1.226107 2.091787 0.000000
-1.394520 2.103214 0.000000
-1.572283 2.116248 0.000000
-1.759509 2.131029 0.000000
-1.956450 2.147657 0.000000
-2.163354 2.166310 0.000000
-2.380503 2.187220 0.000000
0.288257 2.235439 0.000000
0.259159 2.232562 0.000000
0.221806 2.229052 0.000000
0.176240 2.225183 0.000000
0.122505 2.221232 0.000000
0.060602 2.217430 0.000000
-0.009444 2.213997 0.000000
-0.087663 2.211134 0.000000
-0.174101 2.209023 0.000000
-0.268718 2.207815 0.000000
-0.371639 2.207625 0.000000
-0.482808 2.208618 0.000000
-0.602349 2.210833 0.000000
-0.730250 2.214359 0.000000
-0.866602 2.219215 0.000000
-1.011481 2.225403 0.000000
-1.164936 2.232973 0.000000
-1.327146 2.241904 0.000000
-1.498157 2.252284 0.000000
-1.678235 2.264098 0.000000
-1.867508 2.277429 0.000000
-2.066270 2.292378 0.000000
-2.274788 2.309070 0.000000
-2.493360 2.327715 0.000000
0.264706 2.386955 0.000000
0.229423 2.384263 0.000000
0.186032 2.381053 0.000000
0.134564 2.377565 0.000000
0.075077 2.374032 0.000000
0.007589 2.370662 0.000000
-0.067907 2.367665 0.000000
-0.151396 2.365212 0.000000
-0.242883 2.363453 0.000000
-0.342377 2.362546 0.000000
-0.449908 2.362576 0.000000
-0.565465 2.363657 0.000000
-0.689086 2.365845 0.000000
-0.820800 2.369216 0.000000
-0.960634 2.373781 0.000000
-1.108692 2.379545 0.000000
-1.265025 2.386529 0.000000
-1.429789 2.394688 0.000000
-1.603102 2.404076 0.000000
-1.785167 2.414681 0.000000
-1.976213 2.426574 0.000000
-2.176485 2.439823 0.000000
-2.386327 2.454561 0.000000