# vtk DataFile Version 2.0
cook_membrance_rkgsi_mix
ASCII
DATASET POLYDATA
POINTS 961 float
0.000000 0.000000 0.000000
48.000000 44.000000 0.000000
48.000000 60.000000 0.000000
0.000000 44.000000 0.000000
1.600000 1.466667 0.000000
3.200000 2.933333 0.000000
4.800000 4.400000 0.000000
6.400000 5.866667 0.000000
8.000000 7.333333 0.000000
9.600000 8.800000 0.000000
11.200000 10.266667 0.000000
12.800000 11.733333 0.000000
14.400000 13.200000 0.000000
16.000000 14.666667 0.000000
17.600000 16.133333 0.000000
19.200000 17.600000 0.000000
20.800000 19.066667 0.000000
22.400000 20.533333 0.000000
24.000000 22.000000 0.000000
25.600000 23.466667 0.000000
27.200000 24.933333 0.000000
28.800000 26.400000 0.000000
30.400000 27.866667 0.000000
32.000000 29.333333 0.000000
33.600000 30.800000 0.000000
35.200000 32.266667 0.000000
36.800000 33.733333 0.000000
38.400000 35.200000 0.000000
40.000000 36.666667 0.000000
41.600000 38.133333 0.000000
43.200000 39.600000 0.000000
44.800000 41.066667 0.000000
46.400000 42.533333 0.000000
48.000000 44.533333 0.000000
48.000000 45.066667 0.000000
48.000000 45.600000 0.000000
48.000000 46.133333 0.000000
48.000000 46.666667 0.000000
48.000000 47.200000 0.000000
48.000000 47.733333 0.000000
48.000000 48.266667 0.000000
48.000000 48.800000 0.000000
48.000000 49.333333 0.000000
48.000000 49.866667 0.000000
48.000000 50.400000 0.000000
48.000000 50.933333 0.000000
48.000000 51.466667 0.000000
48.000000 52.000000 0.000000
48.000000 52.533333 0.000000
48.000000 53.066667 0.000000
48.000000 53.600000 0.000000
48.000000 54.133333 0.000000
48.000000 54.666667 0.000000
48.000000 55.200000 0.000000
48.000000 55.733333 0.000000
48.000000 56.266667 0.000000
48.000000 56.800000 0.000000
48.000000 57.333333 0.000000
48.000000 57.866667 0.000000
48.000000 58.400000 0.000000
48.000000 58.933333 0.000000
48.000000 59.466667 0.000000
46.400000 59.466667 0.000000
44.800000 58.933333 0.000000
43.200000 58.400000 0.000000
41.600000 57.866667 0.000000
40.000000 57.333333 0.000000
38.400000 56.800000 0.000000
36.800000 56.266667 0.000000
35.200000 55.733333 0.000000
33.600000 55.200000 0.000000
32.000000 54.666667 0.000000
30.400000 54.133333 0.000000
28.800000 53.600000 0.000000
27.200000 53.066667 0.000000
25.600000 52.533333 0.000000
24.000000 52.000000 0.000000
22.400000 51.466667 0.000000
20.800000 50.933333 0.000000
19.200000 50.400000 0.000000
17.600000 49.866667 0.000000
16.000000 49.333333 0.000000
14.400000 48.800000 0.000000
12.800000 48.266667 0.000000
11.200000 47.733333 0.000000
9.600000 47.200000 0.000000
8.000000 46.666667 0.000000
6.400000 46.133333 0.000000
4.800000 45.600000 0.000000
3.200000 45.066667 0.000000
1.600000 44.533333 0.000000
0.000000 42.533333 0.000000
0.000000 41.066667 0.000000
0.000000 39.600000 0.000000
0.000000 38.133333 0.000000
0.000000 36.666667 0.000000
0.000000 35.200000 0.000000
0.000000 33.733333 0.000000
0.000000 32.266667 0.000000
0.000000 30.800000 0.000000
0.000000 29.333333 0.000000
0.000000 27.866667 0.000000
0.000000 26.400000 0.000000
0.000000 24.933333 0.000000
0.000000 23.466667 0.000000
0.000000 22.000000 0.000000
0.000000 20.533333 0.000000
0.000000 19.066667 0.000000
0.000000 17.600000 0.000000
0.000000 16.133333 0.000000
0.000000 14.666667 0.000000
0.000000 13.200000 0.000000
0.000000 11.733333 0.000000
0.000000 10.266667 0.000000
0.000000 8.800000 0.000000
0.000000 7.333333 0.000000
0.000000 5.866667 0.000000
0.000000 4.400000 0.000000
0.000000 2.933333 0.000000
0.000000 1.466667 0.000000
1.600000 2.902222 0.000000
1.600000 4.337778 0.000000
1.600000 5.773333 0.000000
1.600000 7.208889 0.000000
1.600000 8.644444 0.000000
1.600000 10.080000 0.000000
1.600000 11.515556 0.000000
1.600000 12.951111 0.000000
1.600000 14.386667 0.000000
1.600000 15.822222 0.000000
1.600000 17.257778 0.000000
1.600000 18.693333 0.000000
1.600000 20.128889 0.000000
1.600000 21.564444 0.000000
1.600000 23.000000 0.000000
1.600000 24.435556 0.000000
1.600000 25.871111 0.000000
1.600000 27.306667 0.000000
1.600000 28.742222 0.000000
1.600000 30.177778 0.000000
1.600000 31.613333 0.000000
1.600000 33.048889 0.000000
1.600000 34.484444 0.000000
1.600000 35.920000 0.000000
1.600000 37.355556 0.000000
1.600000 38.791111 0.000000
1.600000 40.226667 0.000000
1.600000 41.662222 0.000000
1.600000 43.097778 0.000000
3.200000 4.337778 0.000000
3.200000 5.742222 0.000000
3.200000 7.146667 0.000000
3.200000 8.551111 0.000000
3.200000 9.955556 0.000000
3.200000 11.360000 0.000000
3.200000 12.764444 0.000000
3.200000 14.168889 0.000000
3.200000 15.573333 0.000000
3.200000 16.977778 0.000000
3.200000 18.382222 0.000000
3.200000 19.786667 0.000000
3.200000 21.191111 0.000000
3.200000 22.595556 0.000000
3.200000 24.000000 0.000000
3.200000 25.404444 0.000000
3.200000 26.808889 0.000000
3.200000 28.213333 0.000000
3.200000 29.617778 0.000000
3.200000 31.022222 0.000000
3.200000 32.426667 0.000000
3.200000 33.831111 0.000000
3.200000 35.235556 0.000000
3.200000 36.640000 0.000000
3.200000 38.044444 0.000000
3.200000 39.448889 0.000000
3.200000 40.853333 0.000000
3.200000 42.257778 0.000000
3.200000 43.662222 0.000000
4.800000 5.773333 0.000000
4.800000 7.146667 0.000000
4.800000 8.520000 0.000000
4.800000 9.893333 0.000000
4.800000 11.266667 0.000000
4.800000 12.640000 0.000000
4.800000 14.013333 0.000000
4.800000 15.386667 0.000000
4.800000 16.760000 0.000000
4.800000 18.133333 0.000000
4.800000 19.506667 0.000000
4.800000 20.880000 0.000000
4.800000 22.253333 0.000000
4.800000 23.626667 0.000000
4.800000 25.000000 0.000000
4.800000 26.373333 0.000000
4.800000 27.746667 0.000000
4.800000 29.120000 0.000000
4.800000 30.493333 0.000000
4.800000 31.866667 0.000000
4.800000 33.240000 0.000000
4.800000 34.613333 0.000000
4.800000 35.986667 0.000000
4.800000 37.360000 0.000000
4.800000 38.733333 0.000000
4.800000 40.106667 0.000000
4.800000 41.480000 0.000000
4.800000 42.853333 0.000000
4.800000 44.226667 0.000000
6.400000 7.208889 0.000000
6.400000 8.551111 0.000000
6.400000 9.893333 0.000000
6.400000 11.235556 0.000000
6.400000 12.577778 0.000000
6.400000 13.920000 0.000000
6.400000 15.262222 0.000000
6.400000 16.604444 0.000000
6.400000 17.946667 0.000000
6.400000 19.288889 0.000000
6.400000 20.631111 0.000000
6.400000 21.973333 0.000000
6.400000 23.315556 0.000000
6.400000 24.657778 0.000000
6.400000 26.000000 0.000000
6.400000 27.342222 0.000000
6.400000 28.684444 0.000000
6.400000 30.026667 0.000000
6.400000 31.368889 0.000000
6.400000 32.711111 0.000000
6.400000 34.053333 0.000000
6.400000 35.395556 0.000000
6.400000 36.737778 0.000000
6.400000 38.080000 0.000000
6.400000 39.422222 0.000000
6.400000 40.764444 0.000000
6.400000 42.106667 0.000000
6.400000 43.448889 0.000000
6.400000 44.791111 0.000000
8.000000 8.644444 0.000000
8.000000 9.955556 0.000000
8.000000 11.266667 0.000000
8.000000 12.577778 0.000000
8.000000 13.888889 0.000000
8.000000 15.200000 0.000000
8.000000 16.511111 0.000000
8.000000 17.822222 0.000000
8.000000 19.133333 0.000000
8.000000 20.444444 0.000000
8.000000 21.755556 0.000000
8.000000 23.066667 0.000000
8.000000 24.377778 0.000000
8.000000 25.688889 0.000000
8.000000 27.000000 0.000000
8.000000 28.311111 0.000000
8.000000 29.622222 0.000000
8.000000 30.933333 0.000000
8.000000 32.244444 0.000000
8.000000 33.555556 0.000000
8.000000 34.866667 0.000000
8.000000 36.177778 0.000000
8.000000 37.488889 0.000000
8.000000 38.800000 0.000000
8.000000 40.111111 0.000000
8.000000 41.422222 0.000000
8.000000 42.733333 0.000000
8.000000 44.044444 0.000000
8.000000 45.355556 0.000000
9.600000 10.080000 0.000000
9.600000 11.360000 0.000000
9.600000 12.640000 0.000000
9.600000 13.920000 0.000000
9.600000 15.200000 0.000000
9.600000 16.480000 0.000000
9.600000 17.760000 0.000000
9.600000 19.040000 0.000000
9.600000 20.320000 0.000000
9.600000 21.600000 0.000000
9.600000 22.880000 0.000000
9.600000 24.160000 0.000000
9.600000 25.440000 0.000000
9.600000 26.720000 0.000000
9.600000 28.000000 0.000000
9.600000 29.280000 0.000000
9.600000 30.560000 0.000000
9.600000 31.840000 0.000000
9.600000 33.120000 0.000000
9.600000 34.400000 0.000000
9.600000 35.680000 0.000000
9.600000 36.960000 0.000000
9.600000 38.240000 0.000000
9.600000 39.520000 0.000000
9.600000 40.800000 0.000000
9.600000 42.080000 0.000000
9.600000 43.360000 0.000000
9.600000 44.640000 0.000000
9.600000 45.920000 0.000000
11.200000 11.515556 0.000000
11.200000 12.764444 0.000000
11.200000 14.013333 0.000000
11.200000 15.262222 0.000000
11.200000 16.511111 0.000000
11.200000 17.760000 0.000000
11.200000 19.008889 0.000000
11.200000 20.257778 0.000000
11.200000 21.506667 0.000000
11.200000 22.755556 0.000000
11.200000 24.004444 0.000000
11.200000 25.253333 0.000000
11.200000 26.502222 0.000000
11.200000 27.751111 0.000000
11.200000 29.000000 0.000000
11.200000 30.248889 0.000000
11.200000 31.497778 0.000000
11.200000 32.746667 0.000000
11.200000 33.995556 0.000000
11.200000 35.244444 0.000000
11.200000 36.493333 0.000000
11.200000 37.742222 0.000000
11.200000 38.991111 0.000000
11.200000 40.240000 0.000000
11.200000 41.488889 0.000000
11.200000 42.737778 0.000000
11.200000 43.986667 0.000000
11.200000 45.235556 0.000000
11.200000 46.484444 0.000000
12.800000 12.951111 0.000000
12.800000 14.168889 0.000000
12.800000 15.386667 0.000000
12.800000 16.604444 0.000000
12.800000 17.822222 0.000000
12.800000 19.040000 0.000000
12.800000 20.257778 0.000000
12.800000 21.475556 0.000000
12.800000 22.693333 0.000000
12.800000 23.911111 0.000000
12.800000 25.128889 0.000000
12.800000 26.346667 0.000000
12.800000 27.564444 0.000000
12.800000 28.782222 0.000000
12.800000 30.000000 0.000000
12.800000 31.217778 0.000000
12.800000 32.435556 0.000000
12.800000 33.653333 0.000000
12.800000 34.871111 0.000000
12.800000 36.088889 0.000000
12.800000 37.306667 0.000000
12.800000 38.524444 0.000000
12.800000 39.742222 0.000000
12.800000 40.960000 0.000000
12.800000 42.177778 0.000000
12.800000 43.395556 0.000000
12.800000 44.613333 0.000000
[...]
POINT_DATA 961
VECTORS U float
-0.000000 0.000001 0.000000
-1.894910 6.780183 0.000000
-5.676644 6.799098 0.000000
0.000000 -0.000001 0.000000
0.001111 0.108474 0.000000
0.003339 0.204489 0.000000
0.003454 0.306326 0.000000
0.006125 0.398447 0.000000
0.012833 0.487022 0.000000
0.026797 0.572346 0.000000
0.048481 0.658270 0.000000
0.077145 0.747342 0.000000
0.112636 0.843387 0.000000
0.151842 0.949960 0.000000
0.192983 1.069826 0.000000
0.232646 1.205708 0.000000
0.268013 1.359190 0.000000
0.296238 1.532047 0.000000
0.313987 1.724700 0.000000
0.319150 1.937471 0.000000
0.309094 2.170680 0.000000
0.282008 2.423820 0.000000
0.236009 2.696522 0.000000
0.170022 2.988481 0.000000
0.082328 3.299199 0.000000
-0.027941 3.627918 0.000000
-0.162382 3.974045 0.000000
-0.321636 4.337845 0.000000
-0.507276 4.716865 0.000000
-0.720476 5.111480 0.000000
-0.963002 5.519046 0.000000
-1.236860 5.937187 0.000000
-1.544483 6.360707 0.000000
-2.006302 6.771767 0.000000
-2.112239 6.768488 0.000000
-2.215216 6.767562 0.000000
-2.317032 6.768241 0.000000
-2.418530 6.770270 0.000000
-2.520452 6.773137 0.000000
-2.622569 6.777410 0.000000
-2.725574 6.782679 0.000000
-2.830071 6.788290 0.000000
-2.935614 6.794946 0.000000
-3.042724 6.802025 0.000000
-3.151726 6.809164 0.000000
-3.262525 6.816862 0.000000
-3.375207 6.824552 0.000000
-3.490206 6.832119 0.000000
-3.607751 6.839507 0.000000
-3.727879 6.846971 0.000000
-3.850563 6.853504 0.000000
-3.976144 6.859585 0.000000
-4.105031 6.865345 0.000000
-4.237419 6.870536 0.000000
-4.373533 6.873774 0.000000
-4.514219 6.876901 0.000000
-4.659672 6.878468 0.000000
-4.809500 6.876896 0.000000
-4.965353 6.872671 0.000000
-5.128521 6.864425 0.000000
-5.299094 6.850637 0.000000
-5.479831 6.830447 0.000000
-5.354792 6.257424 0.000000
-5.075552 5.796571 0.000000
-4.817779 5.383914 0.000000
-4.579595 4.990130 0.000000
-4.346898 4.623441 0.000000
-4.125231 4.271715 0.000000
-3.904921 3.938377 0.000000
-3.692097 3.623019 0.000000
-3.480939 3.321687 0.000000
-3.276316 3.040546 0.000000
-3.074664 2.771734 0.000000
-2.878221 2.522783 0.000000
-2.687912 2.286695 0.000000
-2.500324 2.066830 0.000000
-2.320114 1.863346 0.000000
-2.144502 1.671496 0.000000
-1.972991 1.495200 0.000000
-1.807450 1.332354 0.000000
-1.645597 1.182275 0.000000
-1.490487 1.043749 0.000000
-1.335345 0.916559 0.000000
-1.185379 0.803227 0.000000
-1.041565 0.700920 0.000000
-0.894707 0.603332 0.000000
-0.749062 0.516013 0.000000
-0.614537 0.450012 0.000000
-0.450808 0.367421 0.000000
-0.302482 0.292427 0.000000
-0.076376 0.157044 0.000000
0.000005 -0.000012 0.000000
0.000009 -0.000021 0.000000
0.000001 -0.000010 0.000000
-0.000006 0.000004 0.000000
-0.000001 -0.000002 0.000000
0.000006 -0.000012 0.000000
0.000003 -0.000006 0.000000
-0.000004 0.000007 0.000000
-0.000002 0.000004 0.000000
0.000003 -0.000006 0.000000
0.000002 -0.000003 0.000000
-0.000002 0.000004 0.000000
-0.000001 0.000002 0.000000
0.000002 -0.000003 0.000000
0.000000 -0.000000 0.000000
-0.000001 0.000002 0.000000
0.000001 -0.000001 0.000000
0.000001 -0.000001 0.000000
-0.000001 0.000002 0.000000
-0.000000 0.000001 0.000000
0.000001 -0.000001 0.000000
0.000000 0.000002 0.000000
-0.000000 0.000003 0.000000
0.000001 -0.000001 0.000000
0.000000 -0.000000 0.000000
-0.000004 0.000006 0.000000
0.000000 -0.000001 0.000000
0.000003 -0.000005 0.000000
-0.000001 0.000001 0.000000
0.000929 0.106689 0.000000
0.001663 0.103679 0.000000
0.002560 0.099868 0.000000
-0.000093 0.102592 0.000000
-0.001787 0.104668 0.000000
0.002786 0.096448 0.000000
0.003401 0.093522 0.000000
0.000571 0.095508 0.000000
0.003432 0.086618 0.000000
0.006233 0.076143 0.000000
0.003444 0.074159 0.000000
0.003393 0.066958 0.000000
0.006791 0.052854 0.000000
0.006204 0.044768 0.000000
0.004224 0.038747 0.000000
0.005873 0.026002 0.000000
0.007152 0.013472 0.000000
0.005380 0.006288 0.000000
0.004782 -0.002702 0.000000
0.006379 -0.015229 0.000000
0.005831 -0.023549 0.000000
0.003011 -0.027755 0.000000
0.002347 -0.035737 0.000000
0.001746 -0.042846 0.000000
-0.004630 -0.035181 0.000000
-0.014001 -0.014361 0.000000
-0.016059 0.004729 0.000000
-0.021201 0.033584 0.000000
-0.033455 0.084130 0.000000
0.003888 0.205468 0.000000
0.000945 0.206773 0.000000
0.000355 0.203407 0.000000
0.002069 0.199861 0.000000
0.006601 0.196556 0.000000
0.008716 0.192067 0.000000
0.010772 0.183411 0.000000
0.013028 0.173952 0.000000
0.014538 0.163337 0.000000
0.016275 0.149351 0.000000
0.018551 0.134872 0.000000
0.019688 0.121388 0.000000
0.020544 0.105196 0.000000
0.021895 0.086895 0.000000
0.022117 0.070423 0.000000
0.021586 0.054248 0.000000
0.021620 0.036654 0.000000
0.020272 0.021508 0.000000
0.017469 0.009323 0.000000
0.016739 -0.003906 0.000000
0.017067 -0.016032 0.000000
0.012350 -0.021666 0.000000
0.000818 -0.021083 0.000000
-0.015518 -0.014460 0.000000
-0.030842 0.000106 0.000000
-0.044738 0.025039 0.000000
-0.055243 0.055980 0.000000
-0.083710 0.105915 0.000000
-0.131395 0.171503 0.000000
0.003472 0.303112 0.000000
0.004606 0.301671 0.000000
0.007355 0.297787 0.000000
0.012408 0.292008 0.000000
0.017651 0.284658 0.000000
0.021888 0.275628 0.000000
0.025867 0.263226 0.000000
0.030692 0.248212 0.000000
0.035059 0.232365 0.000000
0.038039 0.214778 0.000000
0.040341 0.194615 0.000000
0.042422 0.173881 0.000000
0.043702 0.153709 0.000000
0.044235 0.132591 0.000000
0.044468 0.110630 0.000000
0.043618 0.090190 0.000000
0.040542 0.071623 0.000000
0.035945 0.053687 0.000000
0.031679 0.038112 0.000000
0.027594 0.027631 0.000000
0.020839 0.021712 0.000000
0.006752 0.019327 0.000000
-0.014691 0.021535 0.000000
-0.040421 0.032022 0.000000
-0.064004 0.050731 0.000000
-0.091160 0.084350 0.000000
-0.129256 0.135703 0.000000
-0.192701 0.209747 0.000000
-0.301450 0.302930 0.000000
0.008614 0.396270 0.000000
0.013961 0.391929 0.000000
0.020790 0.386017 0.000000
0.028320 0.377911 0.000000
0.035861 0.366898 0.000000
0.043229 0.353219 0.000000
0.050046 0.337426 0.000000
0.056485 0.319328 0.000000
0.062044 0.299022 0.000000
0.065971 0.277078 0.000000
0.068497 0.254018 0.000000
0.070484 0.230375 0.000000
0.071525 0.206839 0.000000
0.070889 0.183705 0.000000
0.068893 0.161074 0.000000
0.065553 0.139470 0.000000
0.059449 0.119757 0.000000
0.050264 0.102833 0.000000
0.040256 0.089654 0.000000
0.029505 0.081922 0.000000
0.014067 0.079741 0.000000
-0.010826 0.083022 0.000000
-0.042960 0.090641 0.000000
-0.078352 0.105082 0.000000
-0.116621 0.129971 0.000000
-0.164748 0.168731 0.000000
-0.231586 0.225261 0.000000
-0.324853 0.293820 0.000000
-0.449092 0.371288 0.000000
0.020382 0.483889 0.000000
0.030083 0.478139 0.000000
0.041084 0.470066 0.000000
0.052053 0.459330 0.000000
0.062276 0.445392 0.000000
0.071796 0.428580 0.000000
0.080555 0.409816 0.000000
0.088009 0.389297 0.000000
0.093770 0.366725 0.000000
0.097987 0.342560 0.000000
0.100770 0.317858 0.000000
0.101542 0.293174 0.000000
0.099946 0.268690 0.000000
0.096552 0.245107 0.000000
0.091952 0.223224 0.000000
0.084822 0.203265 0.000000
0.073608 0.185173 0.000000
0.058241 0.170180 0.000000
0.040577 0.159887 0.000000
0.020010 0.155759 0.000000
-0.006405 0.157542 0.000000
-0.041305 0.164690 0.000000
-0.083477 0.177773 0.000000
-0.131630 0.197943 0.000000
-0.188282 0.229043 0.000000
-0.258951 0.271664 0.000000
-0.348731 0.326333 0.000000
-0.461993 0.388678 0.000000
-0.598868 0.452515 0.000000
0.039794 0.568795 0.000000
0.054067 0.562111 0.000000
0.068586 0.552330 0.000000
0.082253 0.539201 0.000000
0.094605 0.523120 0.000000
0.105745 0.504712 0.000000
0.115420 0.484451 0.000000
0.122990 0.462471 0.000000
0.128330 0.438980 0.000000
0.131838 0.414561 0.000000
0.133133 0.389885 0.000000
0.131147 0.365426 0.000000
0.125995 0.341614 0.000000
0.118923 0.319343 0.000000
0.110100 0.299407 0.000000
0.097542 0.282135 0.000000
0.079537 0.267327 0.000000
0.056399 0.255677 0.000000
0.029665 0.248762 0.000000
-0.001199 0.247635 0.000000
-0.038766 0.252573 0.000000
-0.084685 0.263241 0.000000
-0.139396 0.281092 0.000000
-0.203742 0.307167 0.000000
-0.280022 0.343091 0.000000
-0.370372 0.388306 0.000000
-0.477115 0.439737 0.000000
-0.600592 0.494359 0.000000
-0.741649 0.548693 0.000000
0.066414 0.653976 0.000000
0.084606 0.646485 0.000000
0.101803 0.635565 0.000000
0.117427 0.621302 0.000000
0.131344 0.604377 0.000000
0.143193 0.585359 0.000000
0.152266 0.564510 0.000000
0.158474 0.542217 0.000000
0.162422 0.519160 0.000000
0.164077 0.495932 0.000000
0.162403 0.472703 0.000000
0.156540 0.449674 0.000000
0.147034 0.427597 0.000000
0.134736 0.407701 0.000000
0.119547 0.390789 0.000000
0.099887 0.376780 0.000000
0.074170 0.365523 0.000000
0.042742 0.357696 0.000000
0.006267 0.354596 0.000000
-0.035967 0.356894 0.000000
-0.085851 0.365086 0.000000
-0.144443 0.379234 0.000000
-0.212929 0.399324 0.000000
-0.292469 0.426103 0.000000
-0.383669 0.459455 0.000000
-0.487048 0.499517 0.000000
-0.604253 0.544840 0.000000
-0.735790 0.594632 0.000000
-0.881395 0.647198 0.000000
0.099552 0.742767 0.000000
0.120468 0.734980 0.000000
0.139257 0.723611 0.000000
0.155837 0.709165 0.000000
0.169970 0.692308 0.000000
0.180849 0.673523 0.000000
0.187992 0.653167 0.000000
0.192011 0.631892 0.000000
0.193408 0.610376 0.000000
0.191650 0.589063 0.000000
0.185674 0.568040 0.000000
0.174939 0.547533 0.000000
0.159764 0.528297 0.000000
0.140960 0.511469 0.000000
0.118440 0.497649 0.000000
0.090487 0.486725 0.000000
0.056099 0.478942 0.000000
0.015498 0.474828 0.000000
-0.031462 0.475156 0.000000
-0.085662 0.480546 0.000000
-0.147460 0.491270 0.000000
-0.217906 0.507032 0.000000
-0.298693 0.527404 0.000000
-0.390335 0.552581 0.000000
-0.493140 0.582832 0.000000
-0.607846 0.618327 0.000000
-0.735057 0.659015 0.000000
-0.874618 0.704015 0.000000
-1.025971 0.752382 0.000000
0.137438 0.838942 0.000000
0.159289 0.830920 0.000000
0.178304 0.819652 0.000000
0.194671 0.805941 0.000000
0.207500 0.790134 0.000000
0.215991 0.772513 0.000000
0.220291 0.753533 0.000000
0.221008 0.733993 0.000000
0.218240 0.714624 0.000000
0.211613 0.695870 0.000000
0.200359 0.677745 0.000000
0.183703 0.660350 0.000000
0.162025 0.644387 0.000000
0.136175 0.630779 0.000000
0.105195 0.619987 0.000000
0.068023 0.612297 0.000000
0.024558 0.607772 0.000000
-0.025517 0.606479 0.000000
-0.083172 0.608897 0.000000
-0.148282 0.615891 0.000000
-0.221138 0.627778 0.000000
-0.303302 0.644562 0.000000
-0.395808 0.666008 0.000000
-0.498567 0.691714 0.000000
-0.612265 0.721554 0.000000
-0.736939 0.754917 0.000000
-0.872225 0.791608 0.000000
-1.017043 0.830198 0.000000
-1.172259 0.871026 0.000000
0.177500 0.945642 0.000000
0.198722 0.937743 0.000000
0.216691 0.927312 0.000000
0.231171 0.914932 0.000000
0.241001 0.900602 0.000000
0.246019 0.884674 0.000000
0.246451 0.867698 0.000000
0.242526 0.850509 0.000000
0.234431 0.833786 0.000000
0.222063 0.817890 0.000000
0.204231 0.802722 0.000000
0.180659 0.788541 0.000000
0.152133 0.776009 0.000000
0.118194 0.765624 0.000000
0.077967 0.757939 0.000000
0.031807 0.753169 0.000000
-0.020623 0.751249 0.000000
-0.080745 0.752275 0.000000
-0.148772 0.756678 0.000000
-0.224182 0.764918 0.000000
-0.308083 0.777208 0.000000
-0.401107 0.793437 0.000000
-0.503267 0.813298 0.000000
-0.615046 0.836634 0.000000
-0.736884 0.863140 0.000000
-0.868584 0.893088 0.000000
-1.008775 0.925901 0.000000
-1.159221 0.962008 0.000000
-1.319825 1.001390 0.000000
0.217408 1.066025 0.000000
0.236363 1.058650 0.000000
0.251538 1.049319 0.000000
0.262239 1.038364 0.000000
0.268012 1.025868 0.000000
0.268612 1.012110 0.000000
0.263901 0.997581 0.000000
0.254230 0.983017 0.000000
0.240142 0.969056 0.000000
0.220727 0.955886 0.000000
0.195409 0.943610 0.000000
0.164878 0.932614 0.000000
0.128635 0.923098 0.000000
0.085689 0.915538 0.000000
0.036696 0.910405 0.000000
-0.018138 0.907991 0.000000
-0.080286 0.908353 0.000000
-0.150321 0.911465 0.000000
-0.227607 0.917373 0.000000
-0.312756 0.926276 0.000000
-0.406263 0.938169 0.000000
-0.508036 0.953015 0.000000
-0.618481 0.970894 0.000000
-0.738309 0.991709 0.000000
-0.867902 1.015783 0.000000
-1.005677 1.043015 0.000000
-1.152354 1.073366 0.000000
-1.308993 1.107244 0.000000
-1.473453 1.143814 0.000000
0.253910 1.202330 0.000000
0.269348 1.195797 0.000000
0.280113 1.187728 0.000000
0.285863 1.178375 0.000000
0.286398 1.167884 0.000000
0.281058 1.156386 0.000000
0.270166 1.144393 0.000000
0.254450 1.132575 0.000000
0.233277 1.121295 0.000000
0.206038 1.110753 0.000000
0.173506 1.101333 0.000000
0.135324 1.093105 0.000000
0.090228 1.086240 0.000000
0.038762 1.081035 0.000000
-0.018467 1.077924 0.000000
-0.082480 1.077232 0.000000
-0.154026 1.078804 0.000000
-0.232562 1.082652 0.000000
-0.318558 1.089121 0.000000
-0.412565 1.098187 0.000000
-0.514396 1.109976 0.000000
-0.624292 1.124553 0.000000
-0.742582 1.141590 0.000000
-0.870168 1.161191 0.000000
-1.005650 1.182985 0.000000
-1.148954 1.206966 0.000000
-1.301667 1.233894 0.000000
-1.462176 1.263037 0.000000
-1.630314 1.295547 0.000000
0.284598 1.356358 0.000000
0.294897 1.350917 0.000000
0.299951 1.344184 0.000000
0.299612 1.336430 0.000000
0.293486 1.327827 0.000000
0.281472 1.318489 0.000000
0.264361 1.308982 0.000000
0.241394 1.299604 0.000000
0.212151 1.290657 0.000000
0.177426 1.282583 0.000000
0.137261 1.275624 0.000000
0.090373 1.269811 0.000000
0.036970 1.265137 0.000000
-0.022432 1.261917 0.000000
-0.088224 1.260651 0.000000
-0.161163 1.261151 0.000000
-0.240899 1.263447 0.000000
-0.327645 1.268010 0.000000
-0.422023 1.274612 0.000000
-0.523944 1.283419 0.000000
-0.633325 1.294530 0.000000
-0.750229 1.307647 0.000000
-0.875605 1.323155 0.000000
-1.008561 1.340639 0.000000
-1.148839 1.359992 0.000000
-1.297963 1.382170 0.000000
-1.454965 1.406337 0.000000
-1.619830 1.433020 0.000000
-1.793128 1.462670 0.000000
0.306216 1.529582 0.000000
0.310309 1.525169 0.000000
0.308767 1.519677 0.000000
0.301223 1.513354 0.000000
0.287844 1.506382 0.000000
0.269069 1.499076 0.000000
0.244243 1.491701 0.000000
0.213029 1.484397 0.000000
0.176237 1.477568 0.000000
0.133978 1.471535 0.000000
0.085454 1.466514 0.000000
0.030433 1.462331 0.000000
-0.030895 1.459233 0.000000
-0.098341 1.457819 0.000000
-0.172526 1.457812 0.000000
-0.253539 1.459138 0.000000
-0.341042 1.462400 0.000000
-0.435681 1.467142 0.000000
-0.537497 1.473572 0.000000
-0.646209 1.481884 0.000000
-0.761973 1.491655 0.000000
-0.885709 1.503675 0.000000
-1.016527 1.517600 0.000000
-1.154479 1.533030 0.000000
-1.300642 1.551225 0.000000
-1.453955 1.571068 0.000000
-1.614859 1.592631 0.000000
-1.783816 1.616808 0.000000
-1.959598 1.642893 0.000000
0.316822 1.722615 0.000000
0.313618 1.719142 0.000000
0.304208 1.714707 0.000000
0.289003 1.709623 0.000000
0.268351 1.704234 0.000000
0.241503 1.698649 0.000000
0.208476 1.692972 0.000000
0.169678 1.687388 0.000000
0.125167 1.682306 0.000000
0.074769 1.678034 0.000000
0.018111 1.674366 0.000000
-0.045117 1.671391 0.000000
-0.114037 1.669812 0.000000
-0.189150 1.669296 0.000000
-0.271153 1.669750 0.000000
-0.359246 1.671846 0.000000
-0.453976 1.675046 0.000000
-0.555670 1.679636 0.000000
-0.663662 1.685906 0.000000
-0.778328 1.693132 0.000000
-0.900759 1.702251 0.000000
-1.029510 1.712996 0.000000
-1.165232 1.724751 0.000000
-1.308775 1.738848 0.000000
-1.458662 1.754553 0.000000
-1.615757 1.771629 0.000000
-1.781041 1.791402 0.000000
-1.952702 1.812895 0.000000
-2.132566 1.836886 0.000000
0.313855 1.935868 0.000000
0.302174 1.933008 0.000000
0.284805 1.929424 0.000000
0.261921 1.925482 0.000000
0.232834 1.921236 0.000000
0.197875 1.916820 0.000000
0.157015 1.912346 0.000000
0.110164 1.908171 0.000000
0.057867 1.904661 0.000000
-0.000444 1.901521 0.000000
-0.065447 1.898779 0.000000
-0.135801 1.897067 0.000000
-0.211904 1.896160 0.000000
-0.294885 1.895979 0.000000
-0.383612 1.897206 0.000000
-0.478590 1.899304 0.000000
-0.580380 1.902709 0.000000
-0.687916 1.907709 0.000000
-0.801725 1.913501 0.000000
-0.923055 1.920804 0.000000
-1.049940 1.929463 0.000000
-1.183373 1.938682 0.000000
-1.324379 1.949528 0.000000
-1.471218 1.961702 0.000000
-1.624702 1.974604 0.000000
-1.786329 1.989735 0.000000
-1.953833 2.006099 0.000000
-2.128914 2.024019 0.000000
-2.311526 2.044350 0.000000
0.295028 2.169095 0.000000
0.274995 2.166652 0.000000
0.249355 2.163831 0.000000
0.217683 2.160660 0.000000
0.180516 2.157266 0.000000
0.137369 2.153722 0.000000
0.088267 2.150263 0.000000
0.034150 2.147233 0.000000
-0.025906 2.144417 0.000000
-0.092605 2.141900 0.000000
-0.164424 2.140185 0.000000
-0.241850 2.139148 0.000000
-0.325833 2.138747 0.000000
-0.415192 2.139377 0.000000
-0.510492 2.140523 0.000000
-0.612272 2.142568 0.000000
-0.719340 2.145763 0.000000
-0.832301 2.149593 0.000000
-0.952270 2.154630 0.000000
-1.077347 2.160928 0.000000
-1.208523 2.167989 0.000000
-1.346819 2.176417 0.000000
-1.490735 2.186147 0.000000
-1.640833 2.196493 0.000000
-1.798575 2.208563 0.000000
-1.962166 2.221644 0.000000
-2.132407 2.235586 0.000000
-2.310456 2.251179 0.000000
-2.494882 2.268114 0.000000
0.259037 2.422290 0.000000
0.230355 2.420217 0.000000
0.195979 2.417710 0.000000
0.156240 2.414931 0.000000
0.110460 2.411946 0.000000
0.059036 2.408960 0.000000
0.002851 2.406257 0.000000
-0.059315 2.403769 0.000000
-0.127668 2.401497 0.000000
-0.200936 2.399739 0.000000
-0.279769 2.398466 0.000000
-0.364505 2.397727 0.000000
-0.454372 2.397739 0.000000
-0.550007 2.398246 0.000000
-0.651607 2.399502 0.000000
-0.758289 2.401597 0.000000
-0.870709 2.404362 0.000000
-0.989334 2.407983 0.000000
-1.113065 2.412424 0.000000
-1.242688 2.417630 0.000000
-1.378594 2.423778 0.000000
-1.519901 2.430959 0.000000
-1.667027 2.438725 0.000000
-1.820807 2.447656 0.000000
-1.980480 2.457466 0.000000
-2.146095 2.468057 0.000000
-2.319022 2.479981 0.000000
-2.498394 2.493031 0.000000
-2.684777 2.507158 0.000000
0.204145 2.694903 0.000000
0.166850 2.692861 0.000000
0.124181 2.690595 0.000000
0.075639 2.688053 0.000000
0.021875 2.685351 0.000000
-0.036731 2.682802 0.000000
-0.101221 2.680406 0.000000
-0.171079 2.678093 0.000000
-0.245972 2.676045 0.000000
-0.326321 2.674423 0.000000
-0.411961 2.673281 0.000000
-0.502739 2.672795 0.000000
-0.599081 2.672930 0.000000
-0.700656 2.673698 0.000000
-0.807314 2.675148 0.000000
-0.919344 2.677399 0.000000
-1.036601 2.680290 0.000000
-1.158929 2.683673 0.000000
-1.287008 2.687691 0.000000
-1.420390 2.692227 0.000000
-1.558945 2.697364 0.000000
-1.703162 2.702950 0.000000
-1.853021 2.709136 0.000000
-2.008854 2.715891 0.000000
-2.170324 2.723396 0.000000
-2.338143 2.731563 0.000000
-2.512340 2.740379 0.000000
-2.692931 2.750000 0.000000
-2.880368 2.760578 0.000000
0.129198 2.986464 0.000000
0.083267 2.984334 0.000000
0.031950 2.981925 0.000000
-0.024283 2.979319 0.000000
-0.085717 2.976846 0.000000
-0.152405 2.974471 0.000000
-0.223935 2.972101 0.000000
-0.300702 2.969978 0.000000
-0.382646 2.968221 0.000000
-0.469315 2.966755 0.000000
-0.561132 2.965803 0.000000
-0.657948 2.965291 0.000000
-0.759504 2.965167 0.000000
-0.866160 2.965445 0.000000
-0.977727 2.966532 0.000000
-1.093888 2.968135 0.000000
-1.214860 2.970280 0.000000
-1.341297 2.973120 0.000000
-1.472096 2.976391 0.000000
-1.608066 2.980191 0.000000
-1.749304 2.984515 0.000000
-1.895498 2.989193 0.000000
-2.047473 2.994203 0.000000
-2.204842 2.999733 0.000000
-2.367808 3.005339 0.000000
-2.536660 3.011328 0.000000
-2.711795 3.017697 0.000000
-2.892975 3.024623 0.000000
-3.080951 3.032077 0.000000
0.032949 3.296780 0.000000
-0.021269 3.294177 0.000000
-0.080468 3.291371 0.000000
-0.144717 3.288667 0.000000
-0.213529 3.286047 0.000000
-0.287140 3.283452 0.000000
-0.366060 3.281184 0.000000
-0.449599 3.279121 0.000000
-0.537519 3.277347 0.000000
-0.630335 3.276031 0.000000
-0.727579 3.275074 0.000000
-0.829468 3.274581 0.000000
-0.936101 3.274442 0.000000
-1.047312 3.274959 0.000000
-1.162730 3.275892 0.000000
-1.282729 3.277367 0.000000
-1.407540 3.279346 0.000000
-1.536255 3.281588 0.000000
-1.670117 3.284159 0.000000
-1.808518 3.287194 0.000000
-1.951430 3.290296 0.000000
-2.099325 3.293575 0.000000
-2.252274 3.296986 0.000000
-2.410367 3.300234 0.000000