# vtk DataFile Version 2.0
cook_membrance_guass3
ASCII
DATASET POLYDATA
POINTS 1891 float
0.000000 0.000000 0.000000
48.000000 44.000000 0.000000
48.000000 60.000000 0.000000
0.000000 44.000000 0.000000
1.353787 1.240971 0.000000
2.681028 2.457609 0.000000
3.982246 3.650392 0.000000
5.257949 4.819787 0.000000
6.508639 5.966252 0.000000
7.734805 7.090238 0.000000
8.936929 8.192185 0.000000
10.115482 9.272525 0.000000
11.270925 10.331682 0.000000
12.403714 11.370071 0.000000
13.514290 12.388099 0.000000
14.603091 13.386166 0.000000
15.670542 14.364664 0.000000
16.717063 15.323975 0.000000
17.743064 16.264476 0.000000
18.748948 17.186535 0.000000
19.735108 18.090516 0.000000
20.701932 18.976771 0.000000
21.649798 19.845648 0.000000
22.579079 20.697489 0.000000
23.490138 21.532627 0.000000
24.383334 22.351390 0.000000
25.259016 23.154098 0.000000
26.117528 23.941067 0.000000
26.959206 24.712606 0.000000
27.784381 25.469016 0.000000
28.593376 26.210594 0.000000
29.386508 26.937632 0.000000
30.164089 27.650414 0.000000
30.926422 28.349221 0.000000
31.673809 29.034325 0.000000
32.406540 29.705995 0.000000
33.124904 30.364496 0.000000
33.829183 31.010085 0.000000
34.519652 31.643015 0.000000
35.196583 32.263535 0.000000
35.860241 32.871887 0.000000
36.510885 33.468312 0.000000
37.148772 34.053041 0.000000
37.774152 34.626306 0.000000
38.387269 35.188330 0.000000
38.988364 35.739333 0.000000
39.577673 36.279533 0.000000
40.155426 36.809141 0.000000
40.721852 37.328364 0.000000
41.277171 37.837406 0.000000
41.821601 38.336468 0.000000
42.355356 38.825743 0.000000
42.878646 39.305425 0.000000
43.391675 39.775702 0.000000
43.894644 40.236757 0.000000
44.387751 40.688772 0.000000
44.871190 41.131924 0.000000
45.345149 41.566387 0.000000
45.809815 41.992331 0.000000
46.265370 42.409923 0.000000
46.711993 42.819327 0.000000
47.149858 43.220703 0.000000
47.579138 43.614210 0.000000
48.000000 44.533333 0.000000
48.000000 45.066667 0.000000
48.000000 45.600000 0.000000
48.000000 46.133333 0.000000
48.000000 46.666667 0.000000
48.000000 47.200000 0.000000
48.000000 47.733333 0.000000
48.000000 48.266667 0.000000
48.000000 48.800000 0.000000
48.000000 49.333333 0.000000
48.000000 49.866667 0.000000
48.000000 50.400000 0.000000
48.000000 50.933333 0.000000
48.000000 51.466667 0.000000
48.000000 52.000000 0.000000
48.000000 52.533333 0.000000
48.000000 53.066667 0.000000
48.000000 53.600000 0.000000
48.000000 54.133333 0.000000
48.000000 54.666667 0.000000
48.000000 55.200000 0.000000
48.000000 55.733333 0.000000
48.000000 56.266667 0.000000
48.000000 56.800000 0.000000
48.000000 57.333333 0.000000
48.000000 57.866667 0.000000
48.000000 58.400000 0.000000
48.000000 58.933333 0.000000
48.000000 59.466667 0.000000
47.579138 59.859713 0.000000
47.149858 59.716619 0.000000
46.711993 59.570664 0.000000
46.265370 59.421790 0.000000
45.809815 59.269938 0.000000
45.345149 59.115050 0.000000
44.871190 58.957063 0.000000
44.387751 58.795917 0.000000
43.894644 58.631548 0.000000
43.391675 58.463892 0.000000
42.878646 58.292882 0.000000
42.355356 58.118452 0.000000
41.821601 57.940534 0.000000
41.277171 57.759057 0.000000
40.721852 57.573951 0.000000
40.155426 57.385142 0.000000
39.577673 57.192558 0.000000
38.988364 56.996121 0.000000
38.387269 56.795756 0.000000
37.774152 56.591384 0.000000
37.148772 56.382924 0.000000
36.510885 56.170295 0.000000
35.860241 55.953414 0.000000
35.196583 55.732194 0.000000
34.519652 55.506551 0.000000
33.829183 55.276394 0.000000
33.124904 55.041635 0.000000
32.406540 54.802180 0.000000
31.673809 54.557936 0.000000
30.926422 54.308807 0.000000
30.164089 54.054696 0.000000
29.386508 53.795503 0.000000
28.593376 53.531125 0.000000
27.784381 53.261460 0.000000
26.959206 52.986402 0.000000
26.117528 52.705843 0.000000
25.259016 52.419672 0.000000
24.383334 52.127778 0.000000
23.490138 51.830046 0.000000
22.579079 51.526360 0.000000
21.649798 51.216599 0.000000
20.701932 50.900644 0.000000
19.735108 50.578369 0.000000
18.748948 50.249649 0.000000
17.743064 49.914355 0.000000
16.717063 49.572354 0.000000
15.670542 49.223514 0.000000
14.603091 48.867697 0.000000
13.514290 48.504763 0.000000
12.403714 48.134571 0.000000
11.270925 47.756975 0.000000
10.115482 47.371827 0.000000
8.936929 46.978976 0.000000
7.734805 46.578268 0.000000
6.508639 46.169546 0.000000
5.257949 45.752650 0.000000
3.982246 45.327415 0.000000
2.681028 44.893676 0.000000
1.353787 44.451262 0.000000
0.000000 42.533333 0.000000
0.000000 41.066667 0.000000
0.000000 39.600000 0.000000
0.000000 38.133333 0.000000
0.000000 36.666667 0.000000
0.000000 35.200000 0.000000
0.000000 33.733333 0.000000
0.000000 32.266667 0.000000
0.000000 30.800000 0.000000
0.000000 29.333333 0.000000
0.000000 27.866667 0.000000
0.000000 26.400000 0.000000
0.000000 24.933333 0.000000
0.000000 23.466667 0.000000
0.000000 22.000000 0.000000
0.000000 20.533333 0.000000
0.000000 19.066667 0.000000
0.000000 17.600000 0.000000
0.000000 16.133333 0.000000
0.000000 14.666667 0.000000
0.000000 13.200000 0.000000
0.000000 11.733333 0.000000
0.000000 10.266667 0.000000
0.000000 8.800000 0.000000
0.000000 7.333333 0.000000
0.000000 5.866667 0.000000
0.000000 4.400000 0.000000
0.000000 2.933333 0.000000
0.000000 1.466667 0.000000
1.353787 2.681314 0.000000
1.353787 4.121657 0.000000
1.353787 5.562000 0.000000
1.353787 7.002343 0.000000
1.353787 8.442686 0.000000
1.353787 9.883029 0.000000
1.353787 11.323372 0.000000
1.353787 12.763715 0.000000
1.353787 14.204058 0.000000
1.353787 15.644401 0.000000
1.353787 17.084744 0.000000
1.353787 18.525088 0.000000
1.353787 19.965431 0.000000
1.353787 21.405774 0.000000
1.353787 22.846117 0.000000
1.353787 24.286460 0.000000
1.353787 25.726803 0.000000
1.353787 27.167146 0.000000
1.353787 28.607489 0.000000
1.353787 30.047832 0.000000
1.353787 31.488175 0.000000
1.353787 32.928518 0.000000
1.353787 34.368861 0.000000
1.353787 35.809204 0.000000
1.353787 37.249547 0.000000
1.353787 38.689890 0.000000
1.353787 40.130233 0.000000
1.353787 41.570576 0.000000
1.353787 43.010919 0.000000
2.681028 3.872145 0.000000
2.681028 5.286680 0.000000
2.681028 6.701216 0.000000
2.681028 8.115752 0.000000
2.681028 9.530287 0.000000
2.681028 10.944823 0.000000
2.681028 12.359358 0.000000
2.681028 13.773894 0.000000
2.681028 15.188429 0.000000
2.681028 16.602965 0.000000
2.681028 18.017501 0.000000
2.681028 19.432036 0.000000
2.681028 20.846572 0.000000
2.681028 22.261107 0.000000
2.681028 23.675643 0.000000
2.681028 25.090178 0.000000
2.681028 26.504714 0.000000
2.681028 27.919249 0.000000
2.681028 29.333785 0.000000
2.681028 30.748321 0.000000
2.681028 32.162856 0.000000
2.681028 33.577392 0.000000
2.681028 34.991927 0.000000
2.681028 36.406463 0.000000
2.681028 37.820998 0.000000
2.681028 39.235534 0.000000
2.681028 40.650069 0.000000
2.681028 42.064605 0.000000
2.681028 43.479141 0.000000
3.982246 5.039626 0.000000
3.982246 6.428860 0.000000
3.982246 7.818094 0.000000
3.982246 9.207328 0.000000
3.982246 10.596563 0.000000
3.982246 11.985797 0.000000
3.982246 13.375031 0.000000
3.982246 14.764265 0.000000
3.982246 16.153499 0.000000
3.982246 17.542733 0.000000
3.982246 18.931967 0.000000
3.982246 20.321201 0.000000
3.982246 21.710435 0.000000
3.982246 23.099670 0.000000
3.982246 24.488904 0.000000
3.982246 25.878138 0.000000
3.982246 27.267372 0.000000
3.982246 28.656606 0.000000
3.982246 30.045840 0.000000
3.982246 31.435074 0.000000
3.982246 32.824308 0.000000
3.982246 34.213542 0.000000
3.982246 35.602777 0.000000
3.982246 36.992011 0.000000
3.982246 38.381245 0.000000
3.982246 39.770479 0.000000
3.982246 41.159713 0.000000
3.982246 42.548947 0.000000
3.982246 43.938181 0.000000
5.257949 6.184216 0.000000
5.257949 7.548644 0.000000
5.257949 8.913073 0.000000
5.257949 10.277502 0.000000
5.257949 11.641931 0.000000
5.257949 13.006359 0.000000
5.257949 14.370788 0.000000
5.257949 15.735217 0.000000
5.257949 17.099646 0.000000
5.257949 18.464074 0.000000
5.257949 19.828503 0.000000
5.257949 21.192932 0.000000
5.257949 22.557361 0.000000
5.257949 23.921790 0.000000
5.257949 25.286218 0.000000
5.257949 26.650647 0.000000
5.257949 28.015076 0.000000
5.257949 29.379505 0.000000
5.257949 30.743933 0.000000
5.257949 32.108362 0.000000
5.257949 33.472791 0.000000
5.257949 34.837220 0.000000
5.257949 36.201648 0.000000
5.257949 37.566077 0.000000
5.257949 38.930506 0.000000
5.257949 40.294935 0.000000
5.257949 41.659363 0.000000
5.257949 43.023792 0.000000
5.257949 44.388221 0.000000
6.508639 7.306362 0.000000
6.508639 8.646472 0.000000
6.508639 9.986582 0.000000
6.508639 11.326691 0.000000
6.508639 12.666801 0.000000
6.508639 14.006911 0.000000
6.508639 15.347021 0.000000
6.508639 16.687131 0.000000
6.508639 18.027240 0.000000
6.508639 19.367350 0.000000
6.508639 20.707460 0.000000
6.508639 22.047570 0.000000
6.508639 23.387680 0.000000
6.508639 24.727789 0.000000
6.508639 26.067899 0.000000
6.508639 27.408009 0.000000
6.508639 28.748119 0.000000
6.508639 30.088229 0.000000
6.508639 31.428338 0.000000
6.508639 32.768448 0.000000
6.508639 34.108558 0.000000
6.508639 35.448668 0.000000
6.508639 36.788778 0.000000
6.508639 38.128887 0.000000
6.508639 39.468997 0.000000
6.508639 40.809107 0.000000
6.508639 42.149217 0.000000
6.508639 43.489327 0.000000
6.508639 44.829436 0.000000
7.734805 8.406506 0.000000
7.734805 9.722773 0.000000
7.734805 11.039041 0.000000
7.734805 12.355309 0.000000
7.734805 13.671576 0.000000
7.734805 14.987844 0.000000
7.734805 16.304112 0.000000
7.734805 17.620379 0.000000
7.734805 18.936647 0.000000
7.734805 20.252915 0.000000
7.734805 21.569182 0.000000
7.734805 22.885450 0.000000
7.734805 24.201718 0.000000
7.734805 25.517985 0.000000
7.734805 26.834253 0.000000
7.734805 28.150521 0.000000
7.734805 29.466789 0.000000
7.734805 30.783056 0.000000
7.734805 32.099324 0.000000
7.734805 33.415592 0.000000
7.734805 34.731859 0.000000
7.734805 36.048127 0.000000
7.734805 37.364395 0.000000
7.734805 38.680662 0.000000
7.734805 39.996930 0.000000
[...]
POINT_DATA 1891
VECTORS U float
0.000000 -0.000000 0.000000
-1.870077 6.739358 0.000000
-5.667667 6.769574 0.000000
-0.000042 0.000053 0.000000
0.000165 0.087372 0.000000
0.000636 0.172533 0.000000
0.001873 0.252771 0.000000
0.003986 0.327943 0.000000
0.006736 0.399050 0.000000
0.011814 0.466124 0.000000
0.020527 0.530214 0.000000
0.033033 0.592375 0.000000
0.049386 0.653809 0.000000
0.069198 0.715545 0.000000
0.091951 0.778811 0.000000
0.116827 0.844679 0.000000
0.143082 0.913997 0.000000
0.169869 0.987515 0.000000
0.196423 1.065677 0.000000
0.221952 1.148741 0.000000
0.245738 1.236805 0.000000
0.267183 1.329886 0.000000
0.285739 1.427909 0.000000
0.300955 1.530701 0.000000
0.312513 1.638090 0.000000
0.320115 1.749712 0.000000
0.323563 1.865344 0.000000
0.322749 1.984610 0.000000
0.317539 2.107233 0.000000
0.307964 2.232882 0.000000
0.293996 2.361275 0.000000
0.275713 2.492033 0.000000
0.253160 2.624916 0.000000
0.226483 2.759640 0.000000
0.195760 2.895945 0.000000
0.161126 3.033568 0.000000
0.122711 3.172294 0.000000
0.080666 3.311900 0.000000
0.035136 3.452196 0.000000
-0.013728 3.592982 0.000000
-0.065795 3.734073 0.000000
-0.120921 3.875308 0.000000
-0.178958 4.016550 0.000000
-0.239757 4.157584 0.000000
-0.303191 4.298316 0.000000
-0.369141 4.438616 0.000000
-0.437466 4.578320 0.000000
-0.508053 4.717304 0.000000
-0.580767 4.855453 0.000000
-0.655497 4.992622 0.000000
-0.732167 5.128714 0.000000
-0.810618 5.263635 0.000000
-0.890776 5.397172 0.000000
-0.972639 5.529304 0.000000
-1.055917 5.659798 0.000000
-1.140661 5.788603 0.000000
-1.226879 5.915669 0.000000
-1.314339 6.040631 0.000000
-1.403044 6.163284 0.000000
-1.493106 6.283776 0.000000
-1.584178 6.401891 0.000000
-1.676619 6.517133 0.000000
-1.771493 6.629461 0.000000
-1.981688 6.731333 0.000000
-2.086901 6.727605 0.000000
-2.188949 6.725955 0.000000
-2.290055 6.725981 0.000000
-2.391146 6.727892 0.000000
-2.492513 6.731459 0.000000
-2.594262 6.736001 0.000000
-2.696965 6.741309 0.000000
-2.801164 6.747377 0.000000
-2.906317 6.754080 0.000000
-3.013064 6.761284 0.000000
-3.121670 6.768745 0.000000
-3.232260 6.776374 0.000000
-3.344640 6.784116 0.000000
-3.459285 6.791751 0.000000
-3.576523 6.799287 0.000000
-3.696147 6.806495 0.000000
-3.818433 6.813303 0.000000
-3.943809 6.819457 0.000000
-4.072332 6.824968 0.000000
-4.203974 6.829751 0.000000
-4.339777 6.833529 0.000000
-4.479511 6.836049 0.000000
-4.623873 6.836911 0.000000
-4.773258 6.836122 0.000000
-4.928680 6.833379 0.000000
-5.092180 6.828168 0.000000
-5.265718 6.819509 0.000000
-5.453611 6.803329 0.000000
-5.563448 6.603525 0.000000
-5.469564 6.453885 0.000000
-5.380753 6.313083 0.000000
-5.295128 6.176838 0.000000
-5.212052 6.043108 0.000000
-5.130945 5.911129 0.000000
-5.051018 5.780569 0.000000
-4.971589 5.651168 0.000000
-4.892298 5.522093 0.000000
-4.813505 5.393622 0.000000
-4.734875 5.265497 0.000000
-4.656087 5.137287 0.000000
-4.576904 5.009004 0.000000
-4.497300 4.880573 0.000000
-4.417284 4.751999 0.000000
-4.336562 4.623305 0.000000
-4.255073 4.494331 0.000000
-4.172822 4.365296 0.000000
-4.089662 4.236069 0.000000
-4.005579 4.106742 0.000000
-3.920560 3.977507 0.000000
-3.834480 3.848282 0.000000
-3.747401 3.719226 0.000000
-3.659335 3.590530 0.000000
-3.570202 3.462122 0.000000
-3.480104 3.334214 0.000000
-3.389031 3.207033 0.000000
-3.296960 3.080523 0.000000
-3.204035 2.954863 0.000000
-3.110251 2.830295 0.000000
-3.015577 2.706816 0.000000
-2.920182 2.584617 0.000000
-2.824098 2.463849 0.000000
-2.727326 2.344621 0.000000
-2.629950 2.227086 0.000000
-2.532034 2.111360 0.000000
-2.433637 1.997608 0.000000
-2.334811 1.885990 0.000000
-2.235593 1.776570 0.000000
-2.136026 1.669453 0.000000
-2.036132 1.564916 0.000000
-1.935978 1.463009 0.000000
-1.835569 1.363805 0.000000
-1.734910 1.267662 0.000000
-1.634065 1.174341 0.000000
-1.532847 1.084344 0.000000
-1.431298 0.997519 0.000000
-1.329496 0.913844 0.000000
-1.226839 0.834098 0.000000
-1.123725 0.757144 0.000000
-1.019512 0.684939 0.000000
-0.913520 0.616068 0.000000
-0.807083 0.550810 0.000000
-0.695344 0.490672 0.000000
-0.578481 0.433035 0.000000
-0.455398 0.384108 0.000000
-0.307932 0.329900 0.000000
-0.147879 0.247255 0.000000
-0.032395 0.125944 0.000000
0.000004 -0.000004 0.000000
0.000008 -0.000006 0.000000
0.000003 -0.000003 0.000000
0.000003 0.000002 0.000000
0.000005 0.000002 0.000000
0.000003 -0.000003 0.000000
0.000001 -0.000002 0.000000
0.000001 0.000001 0.000000
0.000000 -0.000000 0.000000
-0.000000 -0.000002 0.000000
0.000001 -0.000000 0.000000
0.000000 0.000002 0.000000
-0.000001 -0.000000 0.000000
0.000000 -0.000001 0.000000
0.000001 0.000001 0.000000
0.000000 0.000001 0.000000
-0.000000 0.000000 0.000000
0.000001 0.000000 0.000000
0.000001 0.000001 0.000000
0.000000 0.000001 0.000000
0.000001 0.000000 0.000000
0.000001 0.000001 0.000000
0.000000 0.000001 0.000000
0.000000 0.000001 0.000000
0.000000 0.000001 0.000000
0.000000 0.000001 0.000000
-0.000000 0.000001 0.000000
-0.000000 0.000000 0.000000
-0.000000 0.000000 0.000000
0.000173 0.087095 0.000000
0.000200 0.086755 0.000000
0.000287 0.086286 0.000000
0.000502 0.085525 0.000000
0.000774 0.084255 0.000000
0.001034 0.082408 0.000000
0.001404 0.079877 0.000000
0.001914 0.076429 0.000000
0.002351 0.071997 0.000000
0.002683 0.066743 0.000000
0.003136 0.060694 0.000000
0.003596 0.053735 0.000000
0.003728 0.046121 0.000000
0.003748 0.038322 0.000000
0.004055 0.030271 0.000000
0.004255 0.021691 0.000000
0.003900 0.013144 0.000000
0.003655 0.005294 0.000000
0.004049 -0.002545 0.000000
0.004001 -0.010904 0.000000
0.002881 -0.018105 0.000000
0.002178 -0.023063 0.000000
0.002046 -0.027251 0.000000
-0.000317 -0.029314 0.000000
-0.005219 -0.023606 0.000000
-0.008787 -0.009297 0.000000
-0.011705 0.010643 0.000000
-0.017565 0.040206 0.000000
-0.019127 0.077152 0.000000
0.000781 0.171730 0.000000
0.001048 0.170737 0.000000
0.001639 0.169453 0.000000
0.002612 0.167499 0.000000
0.003738 0.164398 0.000000
0.005147 0.159835 0.000000
0.006830 0.153678 0.000000
0.008479 0.146006 0.000000
0.009965 0.136720 0.000000
0.011427 0.125830 0.000000
0.012876 0.113739 0.000000
0.013898 0.100648 0.000000
0.014331 0.086535 0.000000
0.014775 0.071845 0.000000
0.015448 0.057112 0.000000
0.015404 0.042208 0.000000
0.014415 0.027148 0.000000
0.014083 0.012838 0.000000
0.014557 -0.000384 0.000000
0.012896 -0.012976 0.000000
0.009082 -0.023835 0.000000
0.006740 -0.030880 0.000000
0.003361 -0.033590 0.000000
-0.008091 -0.030677 0.000000
-0.022591 -0.017973 0.000000
-0.031812 0.004675 0.000000
-0.046098 0.037813 0.000000
-0.059725 0.082535 0.000000
-0.075095 0.143023 0.000000
0.002301 0.251180 0.000000
0.003082 0.249461 0.000000
0.004858 0.247204 0.000000
0.007409 0.243488 0.000000
0.010446 0.237781 0.000000
0.013771 0.230000 0.000000
0.017016 0.220179 0.000000
0.020294 0.208333 0.000000
0.023385 0.194443 0.000000
0.025912 0.178932 0.000000
0.028061 0.162255 0.000000
0.029808 0.144362 0.000000
0.030767 0.125383 0.000000
0.031186 0.106138 0.000000
0.031508 0.087220 0.000000
0.031181 0.068277 0.000000
0.029625 0.049391 0.000000
0.027977 0.032195 0.000000
0.026382 0.017691 0.000000
0.022182 0.004837 0.000000
0.014836 -0.005693 0.000000
0.006785 -0.009751 0.000000
-0.004325 -0.006887 0.000000
-0.024798 0.000290 0.000000
-0.045599 0.014475 0.000000
-0.064614 0.039321 0.000000
-0.089979 0.074295 0.000000
-0.116130 0.125582 0.000000
-0.181812 0.211385 0.000000
0.004813 0.325897 0.000000
0.007237 0.323330 0.000000
0.011358 0.319373 0.000000
0.016248 0.313318 0.000000
0.021568 0.304977 0.000000
0.026968 0.294115 0.000000
0.032213 0.280731 0.000000
0.037193 0.265233 0.000000
0.041426 0.247797 0.000000
0.044933 0.228532 0.000000
0.047874 0.207911 0.000000
0.049873 0.186476 0.000000
0.050759 0.164388 0.000000
0.050939 0.141935 0.000000
0.050578 0.119912 0.000000
0.048957 0.098936 0.000000
0.045814 0.079060 0.000000
0.041895 0.060827 0.000000
0.036635 0.045854 0.000000
0.028162 0.034710 0.000000
0.015328 0.027057 0.000000
0.000386 0.024630 0.000000
-0.019368 0.029305 0.000000
-0.046909 0.039800 0.000000
-0.075072 0.058609 0.000000
-0.106122 0.089426 0.000000
-0.146488 0.135045 0.000000
-0.205443 0.205705 0.000000
-0.308410 0.290907 0.000000
0.009670 0.396461 0.000000
0.015093 0.392623 0.000000
0.021934 0.386802 0.000000
0.029424 0.378432 0.000000
0.037228 0.367371 0.000000
0.044770 0.353651 0.000000
0.051767 0.337459 0.000000
0.058033 0.319051 0.000000
0.063331 0.298701 0.000000
0.067573 0.276836 0.000000
0.070611 0.253859 0.000000
0.072404 0.230098 0.000000
0.072956 0.206027 0.000000
0.072288 0.182251 0.000000
0.070142 0.159292 0.000000
0.066287 0.137657 0.000000
0.060983 0.117968 0.000000
0.053447 0.101037 0.000000
0.042833 0.087743 0.000000
0.028699 0.078753 0.000000
0.010568 0.074041 0.000000
-0.012525 0.075332 0.000000
-0.041376 0.083578 0.000000
-0.076130 0.097256 0.000000
-0.115298 0.121279 0.000000
-0.160741 0.157561 0.000000
-0.224614 0.209187 0.000000
-0.306505 0.277488 0.000000
-0.429457 0.355627 0.000000
0.018297 0.462908 0.000000
0.026954 0.457823 0.000000
0.036757 0.450231 0.000000
0.046991 0.439802 0.000000
0.056995 0.426519 0.000000
0.066352 0.410522 0.000000
0.074788 0.392072 0.000000
0.081965 0.371537 0.000000
0.087777 0.349290 0.000000
0.092172 0.325703 0.000000
0.094961 0.301216 0.000000
0.095991 0.276354 0.000000
0.095339 0.251615 0.000000
0.092973 0.227560 0.000000
0.088509 0.204724 0.000000
0.081743 0.183631 0.000000
0.072409 0.165370 0.000000
0.060217 0.150452 0.000000
0.044013 0.139059 0.000000
0.023442 0.132523 0.000000
-0.002046 0.131458 0.000000
-0.033489 0.136114 0.000000
-0.069626 0.147240 0.000000
-0.114574 0.165814 0.000000
-0.164552 0.193540 0.000000
-0.227828 0.234240 0.000000
-0.308534 0.285767 0.000000
-0.412916 0.351538 0.000000
-0.544440 0.421134 0.000000
0.030814 0.526488 0.000000
0.042825 0.520293 0.000000
0.055572 0.511246 0.000000
0.068240 0.499187 0.000000
0.080114 0.484168 0.000000
0.090854 0.466543 0.000000
0.100147 0.446630 0.000000
0.107809 0.424742 0.000000
0.113670 0.401334 0.000000
0.117551 0.376969 0.000000
0.119373 0.352078 0.000000
0.119115 0.327062 0.000000
0.116604 0.302513 0.000000
0.111594 0.279138 0.000000
0.104075 0.257508 0.000000
0.093438 0.238019 0.000000
0.079498 0.221295 0.000000
0.061831 0.208430 0.000000
0.039208 0.199727 0.000000
0.011908 0.195476 0.000000
-0.021311 0.196508 0.000000
-0.060566 0.203452 0.000000
-0.107116 0.218337 0.000000
-0.160806 0.240334 0.000000
-0.225791 0.272761 0.000000
-0.303779 0.316184 0.000000
-0.400782 0.368949 0.000000
-0.516689 0.428051 0.000000
-0.653027 0.488945 0.000000
0.047216 0.588167 0.000000
0.062452 0.581005 0.000000
0.077793 0.570788 0.000000
0.092400 0.557516 0.000000
0.105619 0.541333 0.000000
0.117195 0.522645 0.000000
0.126853 0.501845 0.000000
0.134371 0.479415 0.000000
0.139573 0.455769 0.000000
0.142394 0.431333 0.000000
0.142698 0.406678 0.000000
0.140355 0.382406 0.000000
0.135171 0.358987 0.000000
0.126993 0.336871 0.000000
0.115507 0.316876 0.000000
0.100465 0.299543 0.000000
0.081123 0.285338 0.000000
0.057218 0.275005 0.000000
0.028415 0.268724 0.000000
-0.006484 0.267555 0.000000
-0.047316 0.271850 0.000000
-0.095681 0.281854 0.000000
-0.151313 0.298541 0.000000
-0.216889 0.323816 0.000000
-0.294219 0.356645 0.000000
-0.385358 0.398250 0.000000
-0.493526 0.446683 0.000000
-0.617434 0.501158 0.000000
-0.759112 0.558478 0.000000
0.067180 0.649271 0.000000
0.085217 0.641464 0.000000
0.102609 0.630463 0.000000
0.118562 0.616413 0.000000
0.132551 0.599606 0.000000
0.144376 0.580502 0.000000
0.153718 0.559509 0.000000
0.160474 0.537113 0.000000
0.164493 0.513783 0.000000
0.165586 0.490052 0.000000
0.163688 0.466373 0.000000
0.158584 0.443274 0.000000
0.150202 0.421401 0.000000
0.138123 0.401188 0.000000
0.122112 0.383178 0.000000
0.101882 0.368064 0.000000
0.076811 0.356146 0.000000
0.046767 0.348015 0.000000
0.010626 0.344466 0.000000
-0.031488 0.345348 0.000000
-0.080633 0.352021 0.000000
-0.137355 0.364514 0.000000
-0.203499 0.383859 0.000000
-0.279213 0.410112 0.000000
-0.367868 0.443785 0.000000
-0.469582 0.484098 0.000000
-0.586396 0.529264 0.000000
-0.717372 0.578560 0.000000
-0.862413 0.630485 0.000000
0.090101 0.710790 0.000000
0.110324 0.702607 0.000000
0.129103 0.691222 0.000000
0.145743 0.676858 0.000000
0.159872 0.659923 0.000000
0.171277 0.640929 0.000000
0.179734 0.620295 0.000000
0.185125 0.598530 0.000000
0.187250 0.576122 0.000000
0.186081 0.553557 0.000000
0.181374 0.531376 0.000000
0.172965 0.510015 0.000000
0.160696 0.490061 0.000000
0.144247 0.472039 0.000000
0.123335 0.456315 0.000000
0.097514 0.443513 0.000000
0.066596 0.434059 0.000000
0.029578 0.428443 0.000000
-0.013059 0.426975 0.000000
-0.063273 0.430322 0.000000
-0.120342 0.438845 0.000000
-0.186359 0.453195 0.000000
-0.261319 0.473321 0.000000
-0.347504 0.500077 0.000000
-0.445097 0.532250 0.000000
-0.555392 0.570074 0.000000
-0.678794 0.612173 0.000000
-0.815238 0.657949 0.000000
-0.964014 0.706344 0.000000
0.115186 0.774016 0.000000
0.136885 0.765721 0.000000
0.156337 0.754277 0.000000
0.173006 0.740021 0.000000
0.186602 0.723397 0.000000
0.196964 0.704941 0.000000
0.203931 0.685117 0.000000
0.207332 0.664413 0.000000
0.207097 0.643291 0.000000
0.202992 0.622267 0.000000
0.194979 0.601839 0.000000
0.182787 0.582450 0.000000
0.166150 0.564588 0.000000
0.144983 0.548752 0.000000
0.118695 0.535386 0.000000
0.087230 0.524888 0.000000
0.049893 0.517765 0.000000
0.006563 0.514208 0.000000
-0.043729 0.515114 0.000000
-0.100956 0.520219 0.000000
-0.166530 0.530403 0.000000
-0.240546 0.545693 0.000000
-0.324633 0.566383 0.000000
-0.418745 0.592154 0.000000
-0.524626 0.622969 0.000000
-0.641904 0.658283 0.000000
-0.771443 0.697481 0.000000
-0.912421 0.740101 0.000000
-1.064752 0.785704 0.000000
0.141645 0.839957 0.000000
0.163992 0.831789 0.000000
0.183399 0.820591 0.000000
0.199431 0.806768 0.000000
0.211858 0.790818 0.000000
0.220605 0.773255 0.000000
0.225463 0.754559 0.000000
0.226393 0.735229 0.000000
0.223199 0.715729 0.000000
0.215776 0.696478 0.000000
0.203950 0.677994 0.000000
0.187526 0.660734 0.000000
0.166324 0.645034 0.000000
0.139947 0.631462 0.000000
0.108330 0.620269 0.000000
0.070796 0.611962 0.000000
0.027363 0.606899 0.000000
-0.022912 0.605425 0.000000
-0.079917 0.607755 0.000000
-0.144870 0.614560 0.000000
-0.217850 0.625637 0.000000
-0.299881 0.641481 0.000000
-0.391463 0.661813 0.000000
-0.493292 0.686895 0.000000
-0.605825 0.716010 0.000000
-0.729239 0.749175 0.000000
-0.863822 0.785749 0.000000
-1.009133 0.825550 0.000000
-1.164591 0.868176 0.000000
0.168561 0.909468 0.000000
0.190827 0.901573 0.000000
0.209460 0.890841 0.000000
0.224188 0.877721 0.000000
0.234891 0.862693 0.000000
0.241422 0.846296 0.000000
0.243714 0.828960 0.000000
0.241623 0.811182 0.000000
0.235063 0.793429 0.000000
0.223891 0.776116 0.000000
0.207887 0.759636 0.000000
0.187015 0.744461 0.000000
0.160803 0.730961 0.000000
0.129332 0.719470 0.000000
0.091916 0.710489 0.000000
0.048617 0.704160 0.000000
-0.001292 0.701000 0.000000
-0.057855 0.701142 0.000000
-0.122023 0.705043 0.000000
-0.193706 0.712655 0.000000
-0.274026 0.724407 0.000000
-0.363031 0.740185 0.000000
-0.461630 0.760026 0.000000
-0.569870 0.783769 0.000000
-0.688475 0.811271 0.000000
-0.817239 0.842315 0.000000
-0.956334 0.876560 0.000000
-1.105287 0.913843 0.000000
-1.263876 0.954125 0.000000
0.195191 0.983200 0.000000
0.216561 0.975727 0.000000
0.233767 0.965614 0.000000
0.246625 0.953345 0.000000
0.254994 0.939415 0.000000
0.258879 0.924309 0.000000
0.258096 0.908484 0.000000
0.252601 0.892377 0.000000
0.242298 0.876414 0.000000
0.227018 0.861028 0.000000
0.206659 0.846561 0.000000
0.180938 0.833443 0.000000
0.149835 0.821961 0.000000
0.112798 0.812531 0.000000
0.069971 0.805373 0.000000
0.020565 0.800886 0.000000
-0.035307 0.799272 0.000000
-0.098465 0.800857 0.000000
-0.168849 0.805680 0.000000
-0.247409 0.814124 0.000000
-0.334093 0.826029 0.000000
-0.429693 0.841637 0.000000
-0.534350 0.860718 0.000000
-0.648509 0.883371 0.000000
-0.772271 0.909203 0.000000
-0.905720 0.938222 0.000000
-1.048842 0.970220 0.000000
-1.201294 1.005215 0.000000
-1.362830 1.043167 0.000000
0.220727 1.061612 0.000000
0.240521 1.054619 0.000000
0.255697 1.045249 0.000000
0.266108 1.033944 0.000000
0.271715 1.021198 0.000000
0.272440 1.007489 0.000000
0.268222 0.993217 0.000000
0.258999 0.978809 0.000000
0.244611 0.964662 0.000000
0.225042 0.951152 0.000000
0.200008 0.938626 0.000000
0.169514 0.927397 0.000000
0.133138 0.917853 0.000000
0.090916 0.910172 0.000000
0.042284 0.904805 0.000000
-0.012731 0.901812 0.000000
-0.074734 0.901558 0.000000
-0.143773 0.904131 0.000000
-0.220522 0.909823 0.000000
-0.304981 0.918544 0.000000
-0.397861 0.930514 0.000000
-0.499153 0.945643 0.000000
-0.609440 0.963917 0.000000
-0.728642 0.985241 0.000000
-0.857139 1.009556 0.000000
-0.994745 1.036766 0.000000
-1.141481 1.066763 0.000000
-1.297092 1.099601 0.000000
-1.461383 1.135358 0.000000
0.244494 1.144960 0.000000
0.262094 1.138507 0.000000
0.274684 1.129913 0.000000
0.282172 1.119638 0.000000
0.284561 1.108135 0.000000
0.281790 1.095820 0.000000
0.273819 1.083101 0.000000
0.260531 1.070365 0.000000
0.241934 1.057951 0.000000
0.217795 1.046224 0.000000
0.188125 1.035481 0.000000
0.152562 1.026055 0.000000
0.111182 1.018186 0.000000
0.063464 1.012188 0.000000
0.009519 1.008208 0.000000
-0.051253 1.006566 0.000000
-0.118828 1.007350 0.000000
-0.193769 1.010780 0.000000
-0.276088 1.016872 0.000000
-0.366341 1.025843 0.000000
-0.464612 1.037572 0.000000
-0.571258 1.052190 0.000000
-0.686414 1.069541 0.000000
-0.810263 1.089683 0.000000
-0.942863 1.112446 0.000000
-1.084212 1.137883 0.000000
-1.234280 1.165996 0.000000
-1.392851 1.196895 0.000000
-1.559836 1.230706 0.000000
0.265904 1.233331 0.000000
0.280742 1.227458 0.000000
0.290259 1.219680 0.000000
0.294425 1.210424 0.000000
0.293229 1.200143 0.000000
0.286669 1.189218 0.000000
0.274646 1.178000 0.000000
0.257191 1.166832 0.000000
0.234105 1.156064 0.000000
0.205423 1.145989 0.000000
0.170867 1.136912 0.000000
0.130476 1.129048 0.000000
0.083860 1.122715 0.000000
0.031072 1.118058 0.000000
-0.028355 1.115383 0.000000
-0.094391 1.114754 0.000000
-0.167495 1.116406 0.000000
-0.247706 1.120379 0.000000
-0.335482 1.126834 0.000000
-0.430832 1.135748 0.000000
-0.534158 1.147181 0.000000
-0.645507 1.161121 0.000000
-0.765156 1.177555 0.000000
-0.893094 1.196481 0.000000
-1.029466 1.217878 0.000000
-1.174197 1.241756 0.000000
-1.327284 1.268108 0.000000
-1.488608 1.297095 0.000000
-1.658084 1.328877 0.000000
0.284389 1.326748 0.000000
0.296016 1.321458 0.000000
0.302070 1.314488 0.000000
0.302550 1.306247 0.000000
0.297504 1.297133 0.000000
0.286883 1.287505 0.000000
0.270699 1.277683 0.000000
0.248815 1.268002 0.000000
0.221274 1.258721 0.000000
0.187861 1.250144 0.000000
0.148603 1.242509 0.000000
0.103197 1.236089 0.000000
0.051689 1.231046 0.000000
-0.006297 1.227624 0.000000
-0.070730 1.225924 0.000000
-0.141999 1.226168 0.000000
-0.220133 1.228416 0.000000
-0.305470 1.232809 0.000000
-0.398081 1.239341 0.000000
-0.498256 1.248144 0.000000
-0.606114 1.259178 0.000000
-0.721792 1.272493 0.000000
-0.845443 1.288023 0.000000
-0.977089 1.305793 0.000000
-1.116844 1.325803 0.000000
-1.264638 1.348130 0.000000
-1.420526 1.372863 0.000000
-1.584378 1.400125 0.000000
-1.756247 1.430084 0.000000
0.299540 1.425079 0.000000
0.307544 1.420372 0.000000
0.309804 1.414189 0.000000
0.306364 1.406904 0.000000
0.297224 1.398880 0.000000
0.282416 1.390453 0.000000
0.261845 1.381920 0.000000
0.235568 1.373552 0.000000
0.203404 1.365633 0.000000
0.165388 1.358385 0.000000
0.121298 1.352061 0.000000
0.071161 1.346825 0.000000
0.014693 1.342918 0.000000
-0.048096 1.340450 0.000000
-0.117508 1.339622 0.000000
-0.193570 1.340487 0.000000
-0.276546 1.343203 0.000000
-0.366529 1.347814 0.000000
-0.463741 1.354402 0.000000
-0.568261 1.362974 0.000000
-0.680274 1.373541 0.000000
-0.799863 1.386140 0.000000
-0.927127 1.400777 0.000000
-1.062152 1.417481 0.000000